Program Version,EnergyPlus, Version 22.2.0-c249759bad, YMD=2025.06.25 17:35
1,5,Environment Title[],Latitude[deg],Longitude[deg],Time Zone[],Elevation[m]
2,8,Day of Simulation[],Month[],Day of Month[],DST Indicator[1=yes 0=no],Hour[],StartMinute[],EndMinute[],DayType
3,5,Cumulative Day of Simulation[],Month[],Day of Month[],DST Indicator[1=yes 0=no],DayType  ! When Daily Report Variables Requested
4,2,Cumulative Days of Simulation[],Month[]  ! When Monthly Report Variables Requested
5,1,Cumulative Days of Simulation[] ! When Run Period Report Variables Requested
6,1,Calendar Year of Simulation[] ! When Annual Report Variables Requested
7,9,Environment,Site Outdoor Air Drybulb Temperature [C] !Monthly [Value,Min,Day,Hour,Minute,Max,Day,Hour,Minute]
8,9,Environment,Site Outdoor Air Relative Humidity [%] !Monthly [Value,Min,Day,Hour,Minute,Max,Day,Hour,Minute]
9,9,Environment,Site Diffuse Solar Radiation Rate per Area [W/m2] !Monthly [Value,Min,Day,Hour,Minute,Max,Day,Hour,Minute]
462,9,ZONE1_FRONTPERIMETER,Zone Mean Radiant Temperature [C] !Monthly [Value,Min,Day,Hour,Minute,Max,Day,Hour,Minute]
463,9,ZONE1_RIGHTPERIMETER,Zone Mean Radiant Temperature [C] !Monthly [Value,Min,Day,Hour,Minute,Max,Day,Hour,Minute]
464,9,ZONE1_REARPERIMETER,Zone Mean Radiant Temperature [C] !Monthly [Value,Min,Day,Hour,Minute,Max,Day,Hour,Minute]
465,9,ZONE1_LEFTPERIMETER,Zone Mean Radiant Temperature [C] !Monthly [Value,Min,Day,Hour,Minute,Max,Day,Hour,Minute]
466,9,ZONE1_CORE,Zone Mean Radiant Temperature [C] !Monthly [Value,Min,Day,Hour,Minute,Max,Day,Hour,Minute]
467,9,ZONE1_FRONTPERIMETER,Zone Windows Total Transmitted Solar Radiation Rate [W] !Monthly [Value,Min,Day,Hour,Minute,Max,Day,Hour,Minute]
468,9,ZONE1_FRONTPERIMETER,Zone Windows Total Transmitted Solar Radiation Energy [J] !Monthly [Value,Min,Day,Hour,Minute,Max,Day,Hour,Minute]
469,9,ZONE1_RIGHTPERIMETER,Zone Windows Total Transmitted Solar Radiation Rate [W] !Monthly [Value,Min,Day,Hour,Minute,Max,Day,Hour,Minute]
470,9,ZONE1_RIGHTPERIMETER,Zone Windows Total Transmitted Solar Radiation Energy [J] !Monthly [Value,Min,Day,Hour,Minute,Max,Day,Hour,Minute]
471,9,ZONE1_REARPERIMETER,Zone Windows Total Transmitted Solar Radiation Rate [W] !Monthly [Value,Min,Day,Hour,Minute,Max,Day,Hour,Minute]
472,9,ZONE1_REARPERIMETER,Zone Windows Total Transmitted Solar Radiation Energy [J] !Monthly [Value,Min,Day,Hour,Minute,Max,Day,Hour,Minute]
473,9,ZONE1_LEFTPERIMETER,Zone Windows Total Transmitted Solar Radiation Rate [W] !Monthly [Value,Min,Day,Hour,Minute,Max,Day,Hour,Minute]
474,9,ZONE1_LEFTPERIMETER,Zone Windows Total Transmitted Solar Radiation Energy [J] !Monthly [Value,Min,Day,Hour,Minute,Max,Day,Hour,Minute]
475,9,ZONE1_CORE,Zone Windows Total Transmitted Solar Radiation Rate [W] !Monthly [Value,Min,Day,Hour,Minute,Max,Day,Hour,Minute]
476,9,ZONE1_CORE,Zone Windows Total Transmitted Solar Radiation Energy [J] !Monthly [Value,Min,Day,Hour,Minute,Max,Day,Hour,Minute]
477,9,ZONE1_FRONTPERIMETER_ROOF,Surface Outside Face Incident Solar Radiation Rate per Area [W/m2] !Monthly [Value,Min,Day,Hour,Minute,Max,Day,Hour,Minute]
478,9,ZONE1_RIGHTPERIMETER_ROOF,Surface Outside Face Incident Solar Radiation Rate per Area [W/m2] !Monthly [Value,Min,Day,Hour,Minute,Max,Day,Hour,Minute]
479,9,ZONE1_REARPERIMETER_WALL_0,Surface Outside Face Incident Solar Radiation Rate per Area [W/m2] !Monthly [Value,Min,Day,Hour,Minute,Max,Day,Hour,Minute]
480,9,ZONE1_REARPERIMETER_ROOF,Surface Outside Face Incident Solar Radiation Rate per Area [W/m2] !Monthly [Value,Min,Day,Hour,Minute,Max,Day,Hour,Minute]
481,9,ZONE1_REARPERIMETER_WALL_0 WINDOW,Surface Outside Face Incident Solar Radiation Rate per Area [W/m2] !Monthly [Value,Min,Day,Hour,Minute,Max,Day,Hour,Minute]
482,9,ZONE1_REARPERIMETER_WALL_0 WINDOW,Surface Window Transmitted Solar Radiation Rate [W] !Monthly [Value,Min,Day,Hour,Minute,Max,Day,Hour,Minute]
483,9,ZONE1_REARPERIMETER_WALL_0 WINDOW,Surface Window Transmitted Beam Solar Radiation Rate [W] !Monthly [Value,Min,Day,Hour,Minute,Max,Day,Hour,Minute]
484,9,ZONE1_REARPERIMETER_WALL_0 WINDOW,Surface Window Transmitted Diffuse Solar Radiation Rate [W] !Monthly [Value,Min,Day,Hour,Minute,Max,Day,Hour,Minute]
485,9,ZONE1_REARPERIMETER_WALL_0 WINDOW,Surface Window Heat Gain Rate [W] !Monthly [Value,Min,Day,Hour,Minute,Max,Day,Hour,Minute]
486,9,ZONE1_REARPERIMETER_WALL_0 WINDOW,Surface Window Heat Loss Rate [W] !Monthly [Value,Min,Day,Hour,Minute,Max,Day,Hour,Minute]
487,9,ZONE1_REARPERIMETER_WALL_0 WINDOW,Surface Window Shading Device Absorbed Solar Radiation Rate [W] !Monthly [Value,Min,Day,Hour,Minute,Max,Day,Hour,Minute]
488,9,ZONE1_REARPERIMETER_WALL_0 WINDOW,Surface Window Heat Gain Energy [J] !Monthly [Value,Min,Day,Hour,Minute,Max,Day,Hour,Minute]
489,9,ZONE1_REARPERIMETER_WALL_0 WINDOW,Surface Window Heat Loss Energy [J] !Monthly [Value,Min,Day,Hour,Minute,Max,Day,Hour,Minute]
490,9,ZONE1_LEFTPERIMETER_WALL_0,Surface Outside Face Incident Solar Radiation Rate per Area [W/m2] !Monthly [Value,Min,Day,Hour,Minute,Max,Day,Hour,Minute]
491,9,ZONE1_LEFTPERIMETER_ROOF,Surface Outside Face Incident Solar Radiation Rate per Area [W/m2] !Monthly [Value,Min,Day,Hour,Minute,Max,Day,Hour,Minute]
492,9,ZONE1_LEFTPERIMETER_WALL_0 WINDOW,Surface Outside Face Incident Solar Radiation Rate per Area [W/m2] !Monthly [Value,Min,Day,Hour,Minute,Max,Day,Hour,Minute]
493,9,ZONE1_LEFTPERIMETER_WALL_0 WINDOW,Surface Window Transmitted Solar Radiation Rate [W] !Monthly [Value,Min,Day,Hour,Minute,Max,Day,Hour,Minute]
494,9,ZONE1_LEFTPERIMETER_WALL_0 WINDOW,Surface Window Transmitted Beam Solar Radiation Rate [W] !Monthly [Value,Min,Day,Hour,Minute,Max,Day,Hour,Minute]
495,9,ZONE1_LEFTPERIMETER_WALL_0 WINDOW,Surface Window Transmitted Diffuse Solar Radiation Rate [W] !Monthly [Value,Min,Day,Hour,Minute,Max,Day,Hour,Minute]
496,9,ZONE1_LEFTPERIMETER_WALL_0 WINDOW,Surface Window Heat Gain Rate [W] !Monthly [Value,Min,Day,Hour,Minute,Max,Day,Hour,Minute]
497,9,ZONE1_LEFTPERIMETER_WALL_0 WINDOW,Surface Window Heat Loss Rate [W] !Monthly [Value,Min,Day,Hour,Minute,Max,Day,Hour,Minute]
498,9,ZONE1_LEFTPERIMETER_WALL_0 WINDOW,Surface Window Shading Device Absorbed Solar Radiation Rate [W] !Monthly [Value,Min,Day,Hour,Minute,Max,Day,Hour,Minute]
499,9,ZONE1_LEFTPERIMETER_WALL_0 WINDOW,Surface Window Heat Gain Energy [J] !Monthly [Value,Min,Day,Hour,Minute,Max,Day,Hour,Minute]
500,9,ZONE1_LEFTPERIMETER_WALL_0 WINDOW,Surface Window Heat Loss Energy [J] !Monthly [Value,Min,Day,Hour,Minute,Max,Day,Hour,Minute]
501,9,ZONE1_CORE_ROOF,Surface Outside Face Incident Solar Radiation Rate per Area [W/m2] !Monthly [Value,Min,Day,Hour,Minute,Max,Day,Hour,Minute]
502,9,ZONE1_FRONTPERIMETER_WALL_0,Surface Inside Face Temperature [C] !Monthly [Value,Min,Day,Hour,Minute,Max,Day,Hour,Minute]
503,9,ZONE1_FRONTPERIMETER_WALL_0,Surface Outside Face Temperature [C] !Monthly [Value,Min,Day,Hour,Minute,Max,Day,Hour,Minute]
504,9,ZONE1_FRONTPERIMETER_WALL_0,Surface Inside Face Conduction Heat Transfer Rate [W] !Monthly [Value,Min,Day,Hour,Minute,Max,Day,Hour,Minute]
505,9,ZONE1_FRONTPERIMETER_WALL_1,Surface Inside Face Temperature [C] !Monthly [Value,Min,Day,Hour,Minute,Max,Day,Hour,Minute]
506,9,ZONE1_FRONTPERIMETER_WALL_1,Surface Outside Face Temperature [C] !Monthly [Value,Min,Day,Hour,Minute,Max,Day,Hour,Minute]
507,9,ZONE1_FRONTPERIMETER_WALL_1,Surface Inside Face Conduction Heat Transfer Rate [W] !Monthly [Value,Min,Day,Hour,Minute,Max,Day,Hour,Minute]
508,9,ZONE1_FRONTPERIMETER_WALL_2,Surface Inside Face Temperature [C] !Monthly [Value,Min,Day,Hour,Minute,Max,Day,Hour,Minute]
509,9,ZONE1_FRONTPERIMETER_WALL_2,Surface Outside Face Temperature [C] !Monthly [Value,Min,Day,Hour,Minute,Max,Day,Hour,Minute]
510,9,ZONE1_FRONTPERIMETER_WALL_2,Surface Inside Face Conduction Heat Transfer Rate [W] !Monthly [Value,Min,Day,Hour,Minute,Max,Day,Hour,Minute]
511,9,ZONE1_FRONTPERIMETER_WALL_3,Surface Inside Face Temperature [C] !Monthly [Value,Min,Day,Hour,Minute,Max,Day,Hour,Minute]
512,9,ZONE1_FRONTPERIMETER_WALL_3,Surface Outside Face Temperature [C] !Monthly [Value,Min,Day,Hour,Minute,Max,Day,Hour,Minute]
513,9,ZONE1_FRONTPERIMETER_WALL_3,Surface Inside Face Conduction Heat Transfer Rate [W] !Monthly [Value,Min,Day,Hour,Minute,Max,Day,Hour,Minute]
514,9,ZONE1_FRONTPERIMETER_FLOOR,Surface Inside Face Temperature [C] !Monthly [Value,Min,Day,Hour,Minute,Max,Day,Hour,Minute]
515,9,ZONE1_FRONTPERIMETER_FLOOR,Surface Outside Face Temperature [C] !Monthly [Value,Min,Day,Hour,Minute,Max,Day,Hour,Minute]
516,9,ZONE1_FRONTPERIMETER_FLOOR,Surface Inside Face Conduction Heat Transfer Rate [W] !Monthly [Value,Min,Day,Hour,Minute,Max,Day,Hour,Minute]
517,9,ZONE1_FRONTPERIMETER_ROOF,Surface Inside Face Temperature [C] !Monthly [Value,Min,Day,Hour,Minute,Max,Day,Hour,Minute]
518,9,ZONE1_FRONTPERIMETER_ROOF,Surface Outside Face Temperature [C] !Monthly [Value,Min,Day,Hour,Minute,Max,Day,Hour,Minute]
519,9,ZONE1_FRONTPERIMETER_ROOF,Surface Inside Face Conduction Heat Transfer Rate [W] !Monthly [Value,Min,Day,Hour,Minute,Max,Day,Hour,Minute]
520,9,ZONE1_RIGHTPERIMETER_WALL_0,Surface Inside Face Temperature [C] !Monthly [Value,Min,Day,Hour,Minute,Max,Day,Hour,Minute]
521,9,ZONE1_RIGHTPERIMETER_WALL_0,Surface Outside Face Temperature [C] !Monthly [Value,Min,Day,Hour,Minute,Max,Day,Hour,Minute]
522,9,ZONE1_RIGHTPERIMETER_WALL_0,Surface Inside Face Conduction Heat Transfer Rate [W] !Monthly [Value,Min,Day,Hour,Minute,Max,Day,Hour,Minute]
523,9,ZONE1_RIGHTPERIMETER_WALL_1,Surface Inside Face Temperature [C] !Monthly [Value,Min,Day,Hour,Minute,Max,Day,Hour,Minute]
524,9,ZONE1_RIGHTPERIMETER_WALL_1,Surface Outside Face Temperature [C] !Monthly [Value,Min,Day,Hour,Minute,Max,Day,Hour,Minute]
525,9,ZONE1_RIGHTPERIMETER_WALL_1,Surface Inside Face Conduction Heat Transfer Rate [W] !Monthly [Value,Min,Day,Hour,Minute,Max,Day,Hour,Minute]
526,9,ZONE1_RIGHTPERIMETER_WALL_2,Surface Inside Face Temperature [C] !Monthly [Value,Min,Day,Hour,Minute,Max,Day,Hour,Minute]
527,9,ZONE1_RIGHTPERIMETER_WALL_2,Surface Outside Face Temperature [C] !Monthly [Value,Min,Day,Hour,Minute,Max,Day,Hour,Minute]
528,9,ZONE1_RIGHTPERIMETER_WALL_2,Surface Inside Face Conduction Heat Transfer Rate [W] !Monthly [Value,Min,Day,Hour,Minute,Max,Day,Hour,Minute]
529,9,ZONE1_RIGHTPERIMETER_WALL_3,Surface Inside Face Temperature [C] !Monthly [Value,Min,Day,Hour,Minute,Max,Day,Hour,Minute]
530,9,ZONE1_RIGHTPERIMETER_WALL_3,Surface Outside Face Temperature [C] !Monthly [Value,Min,Day,Hour,Minute,Max,Day,Hour,Minute]
531,9,ZONE1_RIGHTPERIMETER_WALL_3,Surface Inside Face Conduction Heat Transfer Rate [W] !Monthly [Value,Min,Day,Hour,Minute,Max,Day,Hour,Minute]
532,9,ZONE1_RIGHTPERIMETER_FLOOR,Surface Inside Face Temperature [C] !Monthly [Value,Min,Day,Hour,Minute,Max,Day,Hour,Minute]
533,9,ZONE1_RIGHTPERIMETER_FLOOR,Surface Outside Face Temperature [C] !Monthly [Value,Min,Day,Hour,Minute,Max,Day,Hour,Minute]
534,9,ZONE1_RIGHTPERIMETER_FLOOR,Surface Inside Face Conduction Heat Transfer Rate [W] !Monthly [Value,Min,Day,Hour,Minute,Max,Day,Hour,Minute]
535,9,ZONE1_RIGHTPERIMETER_ROOF,Surface Inside Face Temperature [C] !Monthly [Value,Min,Day,Hour,Minute,Max,Day,Hour,Minute]
536,9,ZONE1_RIGHTPERIMETER_ROOF,Surface Outside Face Temperature [C] !Monthly [Value,Min,Day,Hour,Minute,Max,Day,Hour,Minute]
537,9,ZONE1_RIGHTPERIMETER_ROOF,Surface Inside Face Conduction Heat Transfer Rate [W] !Monthly [Value,Min,Day,Hour,Minute,Max,Day,Hour,Minute]
538,9,ZONE1_REARPERIMETER_WALL_0,Surface Inside Face Temperature [C] !Monthly [Value,Min,Day,Hour,Minute,Max,Day,Hour,Minute]
539,9,ZONE1_REARPERIMETER_WALL_0,Surface Outside Face Temperature [C] !Monthly [Value,Min,Day,Hour,Minute,Max,Day,Hour,Minute]
540,9,ZONE1_REARPERIMETER_WALL_0,Surface Inside Face Conduction Heat Transfer Rate [W] !Monthly [Value,Min,Day,Hour,Minute,Max,Day,Hour,Minute]
541,9,ZONE1_REARPERIMETER_WALL_1,Surface Inside Face Temperature [C] !Monthly [Value,Min,Day,Hour,Minute,Max,Day,Hour,Minute]
542,9,ZONE1_REARPERIMETER_WALL_1,Surface Outside Face Temperature [C] !Monthly [Value,Min,Day,Hour,Minute,Max,Day,Hour,Minute]
543,9,ZONE1_REARPERIMETER_WALL_1,Surface Inside Face Conduction Heat Transfer Rate [W] !Monthly [Value,Min,Day,Hour,Minute,Max,Day,Hour,Minute]
544,9,ZONE1_REARPERIMETER_WALL_2,Surface Inside Face Temperature [C] !Monthly [Value,Min,Day,Hour,Minute,Max,Day,Hour,Minute]
545,9,ZONE1_REARPERIMETER_WALL_2,Surface Outside Face Temperature [C] !Monthly [Value,Min,Day,Hour,Minute,Max,Day,Hour,Minute]
546,9,ZONE1_REARPERIMETER_WALL_2,Surface Inside Face Conduction Heat Transfer Rate [W] !Monthly [Value,Min,Day,Hour,Minute,Max,Day,Hour,Minute]
547,9,ZONE1_REARPERIMETER_WALL_3,Surface Inside Face Temperature [C] !Monthly [Value,Min,Day,Hour,Minute,Max,Day,Hour,Minute]
548,9,ZONE1_REARPERIMETER_WALL_3,Surface Outside Face Temperature [C] !Monthly [Value,Min,Day,Hour,Minute,Max,Day,Hour,Minute]
549,9,ZONE1_REARPERIMETER_WALL_3,Surface Inside Face Conduction Heat Transfer Rate [W] !Monthly [Value,Min,Day,Hour,Minute,Max,Day,Hour,Minute]
550,9,ZONE1_REARPERIMETER_FLOOR,Surface Inside Face Temperature [C] !Monthly [Value,Min,Day,Hour,Minute,Max,Day,Hour,Minute]
551,9,ZONE1_REARPERIMETER_FLOOR,Surface Outside Face Temperature [C] !Monthly [Value,Min,Day,Hour,Minute,Max,Day,Hour,Minute]
552,9,ZONE1_REARPERIMETER_FLOOR,Surface Inside Face Conduction Heat Transfer Rate [W] !Monthly [Value,Min,Day,Hour,Minute,Max,Day,Hour,Minute]
553,9,ZONE1_REARPERIMETER_ROOF,Surface Inside Face Temperature [C] !Monthly [Value,Min,Day,Hour,Minute,Max,Day,Hour,Minute]
554,9,ZONE1_REARPERIMETER_ROOF,Surface Outside Face Temperature [C] !Monthly [Value,Min,Day,Hour,Minute,Max,Day,Hour,Minute]
555,9,ZONE1_REARPERIMETER_ROOF,Surface Inside Face Conduction Heat Transfer Rate [W] !Monthly [Value,Min,Day,Hour,Minute,Max,Day,Hour,Minute]
556,9,ZONE1_REARPERIMETER_WALL_0 WINDOW,Surface Inside Face Temperature [C] !Monthly [Value,Min,Day,Hour,Minute,Max,Day,Hour,Minute]
557,9,ZONE1_REARPERIMETER_WALL_0 WINDOW,Surface Outside Face Temperature [C] !Monthly [Value,Min,Day,Hour,Minute,Max,Day,Hour,Minute]
558,9,ZONE1_REARPERIMETER_WALL_0 WINDOW,Surface Shading Device Is On Time Fraction [] !Monthly [Value,Min,Day,Hour,Minute,Max,Day,Hour,Minute]
559,9,ZONE1_REARPERIMETER_WALL_0 WINDOW,Surface Window Blind Slat Angle [deg] !Monthly [Value,Min,Day,Hour,Minute,Max,Day,Hour,Minute]
560,9,ZONE1_LEFTPERIMETER_WALL_0,Surface Inside Face Temperature [C] !Monthly [Value,Min,Day,Hour,Minute,Max,Day,Hour,Minute]
561,9,ZONE1_LEFTPERIMETER_WALL_0,Surface Outside Face Temperature [C] !Monthly [Value,Min,Day,Hour,Minute,Max,Day,Hour,Minute]
562,9,ZONE1_LEFTPERIMETER_WALL_0,Surface Inside Face Conduction Heat Transfer Rate [W] !Monthly [Value,Min,Day,Hour,Minute,Max,Day,Hour,Minute]
563,9,ZONE1_LEFTPERIMETER_WALL_1,Surface Inside Face Temperature [C] !Monthly [Value,Min,Day,Hour,Minute,Max,Day,Hour,Minute]
564,9,ZONE1_LEFTPERIMETER_WALL_1,Surface Outside Face Temperature [C] !Monthly [Value,Min,Day,Hour,Minute,Max,Day,Hour,Minute]
565,9,ZONE1_LEFTPERIMETER_WALL_1,Surface Inside Face Conduction Heat Transfer Rate [W] !Monthly [Value,Min,Day,Hour,Minute,Max,Day,Hour,Minute]
566,9,ZONE1_LEFTPERIMETER_WALL_2,Surface Inside Face Temperature [C] !Monthly [Value,Min,Day,Hour,Minute,Max,Day,Hour,Minute]
567,9,ZONE1_LEFTPERIMETER_WALL_2,Surface Outside Face Temperature [C] !Monthly [Value,Min,Day,Hour,Minute,Max,Day,Hour,Minute]
568,9,ZONE1_LEFTPERIMETER_WALL_2,Surface Inside Face Conduction Heat Transfer Rate [W] !Monthly [Value,Min,Day,Hour,Minute,Max,Day,Hour,Minute]
569,9,ZONE1_LEFTPERIMETER_WALL_3,Surface Inside Face Temperature [C] !Monthly [Value,Min,Day,Hour,Minute,Max,Day,Hour,Minute]
570,9,ZONE1_LEFTPERIMETER_WALL_3,Surface Outside Face Temperature [C] !Monthly [Value,Min,Day,Hour,Minute,Max,Day,Hour,Minute]
571,9,ZONE1_LEFTPERIMETER_WALL_3,Surface Inside Face Conduction Heat Transfer Rate [W] !Monthly [Value,Min,Day,Hour,Minute,Max,Day,Hour,Minute]
572,9,ZONE1_LEFTPERIMETER_FLOOR,Surface Inside Face Temperature [C] !Monthly [Value,Min,Day,Hour,Minute,Max,Day,Hour,Minute]
573,9,ZONE1_LEFTPERIMETER_FLOOR,Surface Outside Face Temperature [C] !Monthly [Value,Min,Day,Hour,Minute,Max,Day,Hour,Minute]
574,9,ZONE1_LEFTPERIMETER_FLOOR,Surface Inside Face Conduction Heat Transfer Rate [W] !Monthly [Value,Min,Day,Hour,Minute,Max,Day,Hour,Minute]
575,9,ZONE1_LEFTPERIMETER_ROOF,Surface Inside Face Temperature [C] !Monthly [Value,Min,Day,Hour,Minute,Max,Day,Hour,Minute]
576,9,ZONE1_LEFTPERIMETER_ROOF,Surface Outside Face Temperature [C] !Monthly [Value,Min,Day,Hour,Minute,Max,Day,Hour,Minute]
577,9,ZONE1_LEFTPERIMETER_ROOF,Surface Inside Face Conduction Heat Transfer Rate [W] !Monthly [Value,Min,Day,Hour,Minute,Max,Day,Hour,Minute]
578,9,ZONE1_LEFTPERIMETER_WALL_0 WINDOW,Surface Inside Face Temperature [C] !Monthly [Value,Min,Day,Hour,Minute,Max,Day,Hour,Minute]
579,9,ZONE1_LEFTPERIMETER_WALL_0 WINDOW,Surface Outside Face Temperature [C] !Monthly [Value,Min,Day,Hour,Minute,Max,Day,Hour,Minute]
580,9,ZONE1_LEFTPERIMETER_WALL_0 WINDOW,Surface Shading Device Is On Time Fraction [] !Monthly [Value,Min,Day,Hour,Minute,Max,Day,Hour,Minute]
581,9,ZONE1_LEFTPERIMETER_WALL_0 WINDOW,Surface Window Blind Slat Angle [deg] !Monthly [Value,Min,Day,Hour,Minute,Max,Day,Hour,Minute]
582,9,ZONE1_CORE_WALL_0,Surface Inside Face Temperature [C] !Monthly [Value,Min,Day,Hour,Minute,Max,Day,Hour,Minute]
583,9,ZONE1_CORE_WALL_0,Surface Outside Face Temperature [C] !Monthly [Value,Min,Day,Hour,Minute,Max,Day,Hour,Minute]
584,9,ZONE1_CORE_WALL_0,Surface Inside Face Conduction Heat Transfer Rate [W] !Monthly [Value,Min,Day,Hour,Minute,Max,Day,Hour,Minute]
585,9,ZONE1_CORE_WALL_1,Surface Inside Face Temperature [C] !Monthly [Value,Min,Day,Hour,Minute,Max,Day,Hour,Minute]
586,9,ZONE1_CORE_WALL_1,Surface Outside Face Temperature [C] !Monthly [Value,Min,Day,Hour,Minute,Max,Day,Hour,Minute]
587,9,ZONE1_CORE_WALL_1,Surface Inside Face Conduction Heat Transfer Rate [W] !Monthly [Value,Min,Day,Hour,Minute,Max,Day,Hour,Minute]
588,9,ZONE1_CORE_WALL_2,Surface Inside Face Temperature [C] !Monthly [Value,Min,Day,Hour,Minute,Max,Day,Hour,Minute]
589,9,ZONE1_CORE_WALL_2,Surface Outside Face Temperature [C] !Monthly [Value,Min,Day,Hour,Minute,Max,Day,Hour,Minute]
590,9,ZONE1_CORE_WALL_2,Surface Inside Face Conduction Heat Transfer Rate [W] !Monthly [Value,Min,Day,Hour,Minute,Max,Day,Hour,Minute]
591,9,ZONE1_CORE_WALL_3,Surface Inside Face Temperature [C] !Monthly [Value,Min,Day,Hour,Minute,Max,Day,Hour,Minute]
592,9,ZONE1_CORE_WALL_3,Surface Outside Face Temperature [C] !Monthly [Value,Min,Day,Hour,Minute,Max,Day,Hour,Minute]
593,9,ZONE1_CORE_WALL_3,Surface Inside Face Conduction Heat Transfer Rate [W] !Monthly [Value,Min,Day,Hour,Minute,Max,Day,Hour,Minute]
594,9,ZONE1_CORE_FLOOR,Surface Inside Face Temperature [C] !Monthly [Value,Min,Day,Hour,Minute,Max,Day,Hour,Minute]
595,9,ZONE1_CORE_FLOOR,Surface Outside Face Temperature [C] !Monthly [Value,Min,Day,Hour,Minute,Max,Day,Hour,Minute]
596,9,ZONE1_CORE_FLOOR,Surface Inside Face Conduction Heat Transfer Rate [W] !Monthly [Value,Min,Day,Hour,Minute,Max,Day,Hour,Minute]
597,9,ZONE1_CORE_ROOF,Surface Inside Face Temperature [C] !Monthly [Value,Min,Day,Hour,Minute,Max,Day,Hour,Minute]
598,9,ZONE1_CORE_ROOF,Surface Outside Face Temperature [C] !Monthly [Value,Min,Day,Hour,Minute,Max,Day,Hour,Minute]
599,9,ZONE1_CORE_ROOF,Surface Inside Face Conduction Heat Transfer Rate [W] !Monthly [Value,Min,Day,Hour,Minute,Max,Day,Hour,Minute]
600,9,ZONE1_FRONTPERIMETER,Zone Mean Air Temperature [C] !Monthly [Value,Min,Day,Hour,Minute,Max,Day,Hour,Minute]
601,9,ZONE1_FRONTPERIMETER,Zone Air Heat Balance Internal Convective Heat Gain Rate [W] !Monthly [Value,Min,Day,Hour,Minute,Max,Day,Hour,Minute]
602,9,ZONE1_FRONTPERIMETER,Zone Air Heat Balance Surface Convection Rate [W] !Monthly [Value,Min,Day,Hour,Minute,Max,Day,Hour,Minute]
603,9,ZONE1_FRONTPERIMETER,Zone Air Heat Balance Interzone Air Transfer Rate [W] !Monthly [Value,Min,Day,Hour,Minute,Max,Day,Hour,Minute]
604,9,ZONE1_FRONTPERIMETER,Zone Air Heat Balance Outdoor Air Transfer Rate [W] !Monthly [Value,Min,Day,Hour,Minute,Max,Day,Hour,Minute]
605,9,ZONE1_FRONTPERIMETER,Zone Air Heat Balance System Air Transfer Rate [W] !Monthly [Value,Min,Day,Hour,Minute,Max,Day,Hour,Minute]
606,9,ZONE1_FRONTPERIMETER,Zone Air Heat Balance Air Energy Storage Rate [W] !Monthly [Value,Min,Day,Hour,Minute,Max,Day,Hour,Minute]
607,9,ZONE1_RIGHTPERIMETER,Zone Mean Air Temperature [C] !Monthly [Value,Min,Day,Hour,Minute,Max,Day,Hour,Minute]
608,9,ZONE1_RIGHTPERIMETER,Zone Air Heat Balance Internal Convective Heat Gain Rate [W] !Monthly [Value,Min,Day,Hour,Minute,Max,Day,Hour,Minute]
609,9,ZONE1_RIGHTPERIMETER,Zone Air Heat Balance Surface Convection Rate [W] !Monthly [Value,Min,Day,Hour,Minute,Max,Day,Hour,Minute]
610,9,ZONE1_RIGHTPERIMETER,Zone Air Heat Balance Interzone Air Transfer Rate [W] !Monthly [Value,Min,Day,Hour,Minute,Max,Day,Hour,Minute]
611,9,ZONE1_RIGHTPERIMETER,Zone Air Heat Balance Outdoor Air Transfer Rate [W] !Monthly [Value,Min,Day,Hour,Minute,Max,Day,Hour,Minute]
612,9,ZONE1_RIGHTPERIMETER,Zone Air Heat Balance System Air Transfer Rate [W] !Monthly [Value,Min,Day,Hour,Minute,Max,Day,Hour,Minute]
613,9,ZONE1_RIGHTPERIMETER,Zone Air Heat Balance Air Energy Storage Rate [W] !Monthly [Value,Min,Day,Hour,Minute,Max,Day,Hour,Minute]
614,9,ZONE1_REARPERIMETER,Zone Mean Air Temperature [C] !Monthly [Value,Min,Day,Hour,Minute,Max,Day,Hour,Minute]
615,9,ZONE1_REARPERIMETER,Zone Air Heat Balance Internal Convective Heat Gain Rate [W] !Monthly [Value,Min,Day,Hour,Minute,Max,Day,Hour,Minute]
616,9,ZONE1_REARPERIMETER,Zone Air Heat Balance Surface Convection Rate [W] !Monthly [Value,Min,Day,Hour,Minute,Max,Day,Hour,Minute]
617,9,ZONE1_REARPERIMETER,Zone Air Heat Balance Interzone Air Transfer Rate [W] !Monthly [Value,Min,Day,Hour,Minute,Max,Day,Hour,Minute]
618,9,ZONE1_REARPERIMETER,Zone Air Heat Balance Outdoor Air Transfer Rate [W] !Monthly [Value,Min,Day,Hour,Minute,Max,Day,Hour,Minute]
619,9,ZONE1_REARPERIMETER,Zone Air Heat Balance System Air Transfer Rate [W] !Monthly [Value,Min,Day,Hour,Minute,Max,Day,Hour,Minute]
620,9,ZONE1_REARPERIMETER,Zone Air Heat Balance Air Energy Storage Rate [W] !Monthly [Value,Min,Day,Hour,Minute,Max,Day,Hour,Minute]
621,9,ZONE1_LEFTPERIMETER,Zone Mean Air Temperature [C] !Monthly [Value,Min,Day,Hour,Minute,Max,Day,Hour,Minute]
622,9,ZONE1_LEFTPERIMETER,Zone Air Heat Balance Internal Convective Heat Gain Rate [W] !Monthly [Value,Min,Day,Hour,Minute,Max,Day,Hour,Minute]
623,9,ZONE1_LEFTPERIMETER,Zone Air Heat Balance Surface Convection Rate [W] !Monthly [Value,Min,Day,Hour,Minute,Max,Day,Hour,Minute]
624,9,ZONE1_LEFTPERIMETER,Zone Air Heat Balance Interzone Air Transfer Rate [W] !Monthly [Value,Min,Day,Hour,Minute,Max,Day,Hour,Minute]
625,9,ZONE1_LEFTPERIMETER,Zone Air Heat Balance Outdoor Air Transfer Rate [W] !Monthly [Value,Min,Day,Hour,Minute,Max,Day,Hour,Minute]
626,9,ZONE1_LEFTPERIMETER,Zone Air Heat Balance System Air Transfer Rate [W] !Monthly [Value,Min,Day,Hour,Minute,Max,Day,Hour,Minute]
627,9,ZONE1_LEFTPERIMETER,Zone Air Heat Balance Air Energy Storage Rate [W] !Monthly [Value,Min,Day,Hour,Minute,Max,Day,Hour,Minute]
628,9,ZONE1_CORE,Zone Mean Air Temperature [C] !Monthly [Value,Min,Day,Hour,Minute,Max,Day,Hour,Minute]
629,9,ZONE1_CORE,Zone Air Heat Balance Internal Convective Heat Gain Rate [W] !Monthly [Value,Min,Day,Hour,Minute,Max,Day,Hour,Minute]
630,9,ZONE1_CORE,Zone Air Heat Balance Surface Convection Rate [W] !Monthly [Value,Min,Day,Hour,Minute,Max,Day,Hour,Minute]
631,9,ZONE1_CORE,Zone Air Heat Balance Interzone Air Transfer Rate [W] !Monthly [Value,Min,Day,Hour,Minute,Max,Day,Hour,Minute]
632,9,ZONE1_CORE,Zone Air Heat Balance Outdoor Air Transfer Rate [W] !Monthly [Value,Min,Day,Hour,Minute,Max,Day,Hour,Minute]
633,9,ZONE1_CORE,Zone Air Heat Balance System Air Transfer Rate [W] !Monthly [Value,Min,Day,Hour,Minute,Max,Day,Hour,Minute]
634,9,ZONE1_CORE,Zone Air Heat Balance Air Energy Storage Rate [W] !Monthly [Value,Min,Day,Hour,Minute,Max,Day,Hour,Minute]
635,9,ZONE1_FRONTPERIMETER,Zone Infiltration Sensible Heat Loss Energy [J] !Monthly [Value,Min,Day,Hour,Minute,Max,Day,Hour,Minute]
636,9,ZONE1_FRONTPERIMETER,Zone Infiltration Sensible Heat Gain Energy [J] !Monthly [Value,Min,Day,Hour,Minute,Max,Day,Hour,Minute]
637,9,ZONE1_FRONTPERIMETER,Zone Infiltration Latent Heat Loss Energy [J] !Monthly [Value,Min,Day,Hour,Minute,Max,Day,Hour,Minute]
638,9,ZONE1_FRONTPERIMETER,Zone Infiltration Latent Heat Gain Energy [J] !Monthly [Value,Min,Day,Hour,Minute,Max,Day,Hour,Minute]
639,9,ZONE1_FRONTPERIMETER,Zone Infiltration Standard Density Volume Flow Rate [m3/s] !Monthly [Value,Min,Day,Hour,Minute,Max,Day,Hour,Minute]
640,9,ZONE1_RIGHTPERIMETER,Zone Infiltration Sensible Heat Loss Energy [J] !Monthly [Value,Min,Day,Hour,Minute,Max,Day,Hour,Minute]
641,9,ZONE1_RIGHTPERIMETER,Zone Infiltration Sensible Heat Gain Energy [J] !Monthly [Value,Min,Day,Hour,Minute,Max,Day,Hour,Minute]
642,9,ZONE1_RIGHTPERIMETER,Zone Infiltration Latent Heat Loss Energy [J] !Monthly [Value,Min,Day,Hour,Minute,Max,Day,Hour,Minute]
643,9,ZONE1_RIGHTPERIMETER,Zone Infiltration Latent Heat Gain Energy [J] !Monthly [Value,Min,Day,Hour,Minute,Max,Day,Hour,Minute]
644,9,ZONE1_RIGHTPERIMETER,Zone Infiltration Standard Density Volume Flow Rate [m3/s] !Monthly [Value,Min,Day,Hour,Minute,Max,Day,Hour,Minute]
645,9,ZONE1_REARPERIMETER,Zone Infiltration Sensible Heat Loss Energy [J] !Monthly [Value,Min,Day,Hour,Minute,Max,Day,Hour,Minute]
646,9,ZONE1_REARPERIMETER,Zone Infiltration Sensible Heat Gain Energy [J] !Monthly [Value,Min,Day,Hour,Minute,Max,Day,Hour,Minute]
647,9,ZONE1_REARPERIMETER,Zone Infiltration Latent Heat Loss Energy [J] !Monthly [Value,Min,Day,Hour,Minute,Max,Day,Hour,Minute]
648,9,ZONE1_REARPERIMETER,Zone Infiltration Latent Heat Gain Energy [J] !Monthly [Value,Min,Day,Hour,Minute,Max,Day,Hour,Minute]
649,9,ZONE1_REARPERIMETER,Zone Infiltration Standard Density Volume Flow Rate [m3/s] !Monthly [Value,Min,Day,Hour,Minute,Max,Day,Hour,Minute]
650,9,ZONE1_LEFTPERIMETER,Zone Infiltration Sensible Heat Loss Energy [J] !Monthly [Value,Min,Day,Hour,Minute,Max,Day,Hour,Minute]
651,9,ZONE1_LEFTPERIMETER,Zone Infiltration Sensible Heat Gain Energy [J] !Monthly [Value,Min,Day,Hour,Minute,Max,Day,Hour,Minute]
652,9,ZONE1_LEFTPERIMETER,Zone Infiltration Latent Heat Loss Energy [J] !Monthly [Value,Min,Day,Hour,Minute,Max,Day,Hour,Minute]
653,9,ZONE1_LEFTPERIMETER,Zone Infiltration Latent Heat Gain Energy [J] !Monthly [Value,Min,Day,Hour,Minute,Max,Day,Hour,Minute]
654,9,ZONE1_LEFTPERIMETER,Zone Infiltration Standard Density Volume Flow Rate [m3/s] !Monthly [Value,Min,Day,Hour,Minute,Max,Day,Hour,Minute]
655,9,ZONE1_CORE,Zone Infiltration Sensible Heat Loss Energy [J] !Monthly [Value,Min,Day,Hour,Minute,Max,Day,Hour,Minute]
656,9,ZONE1_CORE,Zone Infiltration Sensible Heat Gain Energy [J] !Monthly [Value,Min,Day,Hour,Minute,Max,Day,Hour,Minute]
657,9,ZONE1_CORE,Zone Infiltration Latent Heat Loss Energy [J] !Monthly [Value,Min,Day,Hour,Minute,Max,Day,Hour,Minute]
658,9,ZONE1_CORE,Zone Infiltration Latent Heat Gain Energy [J] !Monthly [Value,Min,Day,Hour,Minute,Max,Day,Hour,Minute]
659,9,ZONE1_CORE,Zone Infiltration Standard Density Volume Flow Rate [m3/s] !Monthly [Value,Min,Day,Hour,Minute,Max,Day,Hour,Minute]
660,9,ZONE1_FRONTPERIMETER,Zone Ventilation Sensible Heat Loss Energy [J] !Monthly [Value,Min,Day,Hour,Minute,Max,Day,Hour,Minute]
661,9,ZONE1_FRONTPERIMETER,Zone Ventilation Sensible Heat Gain Energy [J] !Monthly [Value,Min,Day,Hour,Minute,Max,Day,Hour,Minute]
662,9,ZONE1_FRONTPERIMETER,Zone Ventilation Latent Heat Loss Energy [J] !Monthly [Value,Min,Day,Hour,Minute,Max,Day,Hour,Minute]
663,9,ZONE1_FRONTPERIMETER,Zone Ventilation Latent Heat Gain Energy [J] !Monthly [Value,Min,Day,Hour,Minute,Max,Day,Hour,Minute]
664,9,ZONE1_FRONTPERIMETER,Zone Ventilation Standard Density Volume Flow Rate [m3/s] !Monthly [Value,Min,Day,Hour,Minute,Max,Day,Hour,Minute]
714,9,ZONE1_RIGHTPERIMETER,Zone Ventilation Sensible Heat Loss Energy [J] !Monthly [Value,Min,Day,Hour,Minute,Max,Day,Hour,Minute]
715,9,ZONE1_RIGHTPERIMETER,Zone Ventilation Sensible Heat Gain Energy [J] !Monthly [Value,Min,Day,Hour,Minute,Max,Day,Hour,Minute]
716,9,ZONE1_RIGHTPERIMETER,Zone Ventilation Latent Heat Loss Energy [J] !Monthly [Value,Min,Day,Hour,Minute,Max,Day,Hour,Minute]
717,9,ZONE1_RIGHTPERIMETER,Zone Ventilation Latent Heat Gain Energy [J] !Monthly [Value,Min,Day,Hour,Minute,Max,Day,Hour,Minute]
718,9,ZONE1_RIGHTPERIMETER,Zone Ventilation Standard Density Volume Flow Rate [m3/s] !Monthly [Value,Min,Day,Hour,Minute,Max,Day,Hour,Minute]
744,9,ZONE1_REARPERIMETER,Zone Ventilation Sensible Heat Loss Energy [J] !Monthly [Value,Min,Day,Hour,Minute,Max,Day,Hour,Minute]
745,9,ZONE1_REARPERIMETER,Zone Ventilation Sensible Heat Gain Energy [J] !Monthly [Value,Min,Day,Hour,Minute,Max,Day,Hour,Minute]
746,9,ZONE1_REARPERIMETER,Zone Ventilation Latent Heat Loss Energy [J] !Monthly [Value,Min,Day,Hour,Minute,Max,Day,Hour,Minute]
747,9,ZONE1_REARPERIMETER,Zone Ventilation Latent Heat Gain Energy [J] !Monthly [Value,Min,Day,Hour,Minute,Max,Day,Hour,Minute]
748,9,ZONE1_REARPERIMETER,Zone Ventilation Standard Density Volume Flow Rate [m3/s] !Monthly [Value,Min,Day,Hour,Minute,Max,Day,Hour,Minute]
774,9,ZONE1_LEFTPERIMETER,Zone Ventilation Sensible Heat Loss Energy [J] !Monthly [Value,Min,Day,Hour,Minute,Max,Day,Hour,Minute]
775,9,ZONE1_LEFTPERIMETER,Zone Ventilation Sensible Heat Gain Energy [J] !Monthly [Value,Min,Day,Hour,Minute,Max,Day,Hour,Minute]
776,9,ZONE1_LEFTPERIMETER,Zone Ventilation Latent Heat Loss Energy [J] !Monthly [Value,Min,Day,Hour,Minute,Max,Day,Hour,Minute]
777,9,ZONE1_LEFTPERIMETER,Zone Ventilation Latent Heat Gain Energy [J] !Monthly [Value,Min,Day,Hour,Minute,Max,Day,Hour,Minute]