Program Version,EnergyPlus, Version 22.2.0-c249759bad, YMD=2025.06.25 17:34
1,5,Environment Title[],Latitude[deg],Longitude[deg],Time Zone[],Elevation[m]
2,8,Day of Simulation[],Month[],Day of Month[],DST Indicator[1=yes 0=no],Hour[],StartMinute[],EndMinute[],DayType
3,5,Cumulative Day of Simulation[],Month[],Day of Month[],DST Indicator[1=yes 0=no],DayType  ! When Daily Meters Requested
4,2,Cumulative Days of Simulation[],Month[]  ! When Monthly Meters Requested
5,1,Cumulative Days of Simulation[] ! When Run Period Meters Requested
6,1,Calendar Year of Simulation[] ! When Annual Meters Requested
1241,9,Heating:EnergyTransfer [J] !Monthly [Value,Min,Day,Hour,Minute,Max,Day,Hour,Minute]
1290,9,Cooling:EnergyTransfer [J] !Monthly [Value,Min,Day,Hour,Minute,Max,Day,Hour,Minute]
23,7,Electricity:Facility [J] !Daily [Value,Min,Hour,Minute,Max,Hour,Minute]
End of Data Dictionary
1,RUN PERIOD 1,  52.46,   5.52,   1.00,  -3.90
3,1, 1, 1, 0,Tuesday
23,4679685.384218084,10813.831043831517, 1,10,67586.44402394698,18,10
3,2, 1, 2, 0,Wednesday
23,4679685.384218084,10813.831043831517, 1,10,67586.44402394698,18,10
3,3, 1, 3, 0,Thursday
23,4679685.384218084,10813.831043831517, 1,10,67586.44402394698,18,10
3,4, 1, 4, 0,Friday
23,4679685.384218084,10813.831043831517, 1,10,67586.44402394698,18,10
3,5, 1, 5, 0,Saturday
23,6285539.2942270655,13517.288804789396, 1,10,60827.79962155229, 8,10
3,6, 1, 6, 0,Sunday
23,6285539.2942270655,13517.288804789396, 1,10,60827.79962155229, 8,10
3,7, 1, 7, 0,Monday
23,4679685.384218084,10813.831043831517, 1,10,67586.44402394698,18,10
3,8, 1, 8, 0,Tuesday
23,4679685.384218084,10813.831043831517, 1,10,67586.44402394698,18,10
3,9, 1, 9, 0,Wednesday
23,4679685.384218084,10813.831043831517, 1,10,67586.44402394698,18,10
3,10, 1,10, 0,Thursday
23,4679685.384218084,10813.831043831517, 1,10,67586.44402394698,18,10
3,11, 1,11, 0,Friday
23,4679685.384218084,10813.831043831517, 1,10,67586.44402394698,18,10
3,12, 1,12, 0,Saturday
23,6285539.2942270655,13517.288804789396, 1,10,60827.79962155229, 8,10
3,13, 1,13, 0,Sunday
23,6285539.2942270655,13517.288804789396, 1,10,60827.79962155229, 8,10
3,14, 1,14, 0,Monday
23,4679685.384218084,10813.831043831517, 1,10,67586.44402394698,18,10
3,15, 1,15, 0,Tuesday
23,4679685.384218084,10813.831043831517, 1,10,67586.44402394698,18,10
3,16, 1,16, 0,Wednesday
23,4679685.384218084,10813.831043831517, 1,10,67586.44402394698,18,10
3,17, 1,17, 0,Thursday
23,4679685.384218084,10813.831043831517, 1,10,67586.44402394698,18,10
3,18, 1,18, 0,Friday
23,4679685.384218084,10813.831043831517, 1,10,67586.44402394698,18,10
3,19, 1,19, 0,Saturday
23,6285539.2942270655,13517.288804789396, 1,10,60827.79962155229, 8,10
3,20, 1,20, 0,Sunday
23,6285539.2942270655,13517.288804789396, 1,10,60827.79962155229, 8,10
3,21, 1,21, 0,Monday
23,4679685.384218084,10813.831043831517, 1,10,67586.44402394698,18,10
3,22, 1,22, 0,Tuesday
23,4679685.384218084,10813.831043831517, 1,10,67586.44402394698,18,10
3,23, 1,23, 0,Wednesday
23,4679685.384218084,10813.831043831517, 1,10,67586.44402394698,18,10
3,24, 1,24, 0,Thursday
23,4679685.384218084,10813.831043831517, 1,10,67586.44402394698,18,10
3,25, 1,25, 0,Friday
23,4679685.384218084,10813.831043831517, 1,10,67586.44402394698,18,10
3,26, 1,26, 0,Saturday
23,6285539.2942270655,13517.288804789396, 1,10,60827.79962155229, 8,10
3,27, 1,27, 0,Sunday
23,6285539.2942270655,13517.288804789396, 1,10,60827.79962155229, 8,10
3,28, 1,28, 0,Monday
23,4679685.384218084,10813.831043831517, 1,10,67586.44402394698,18,10
3,29, 1,29, 0,Tuesday
23,4679685.384218084,10813.831043831517, 1,10,67586.44402394698,18,10
3,30, 1,30, 0,Wednesday
23,4679685.384218084,10813.831043831517, 1,10,67586.44402394698,18,10
3,31, 1,31, 0,Thursday
23,4679685.384218084,10813.831043831517, 1,10,67586.44402394698,18,10
4,31, 1
1241,4091363310.009807,0.0, 1,24,10,1931059.6860732294,28, 8,10
1290,44391811.62348802,121.29066804134068,26, 7,60,291198.5429656812, 4,24,10
3,32, 2, 1, 0,Friday
23,4679685.384218084,10813.831043831517, 1,10,67586.44402394698,18,10
3,33, 2, 2, 0,Saturday
23,6285539.2942270655,13517.288804789396, 1,10,60827.79962155229, 8,10
3,34, 2, 3, 0,Sunday
23,6285539.2942270655,13517.288804789396, 1,10,60827.79962155229, 8,10
3,35, 2, 4, 0,Monday
23,4679685.384218084,10813.831043831517, 1,10,67586.44402394698,18,10
3,36, 2, 5, 0,Tuesday
23,4679685.384218084,10813.831043831517, 1,10,67586.44402394698,18,10
3,37, 2, 6, 0,Wednesday
23,4679685.384218084,10813.831043831517, 1,10,67586.44402394698,18,10
3,38, 2, 7, 0,Thursday
23,4679685.384218084,10813.831043831517, 1,10,67586.44402394698,18,10
3,39, 2, 8, 0,Friday
23,4679685.384218084,10813.831043831517, 1,10,67586.44402394698,18,10
3,40, 2, 9, 0,Saturday
23,6285539.2942270655,13517.288804789396, 1,10,60827.79962155229, 8,10
3,41, 2,10, 0,Sunday
23,6285539.2942270655,13517.288804789396, 1,10,60827.79962155229, 8,10
3,42, 2,11, 0,Monday
23,4679685.384218084,10813.831043831517, 1,10,67586.44402394698,18,10
3,43, 2,12, 0,Tuesday
23,4679685.384218084,10813.831043831517, 1,10,67586.44402394698,18,10
3,44, 2,13, 0,Wednesday
23,4679685.384218084,10813.831043831517, 1,10,67586.44402394698,18,10
3,45, 2,14, 0,Thursday
23,4679685.384218084,10813.831043831517, 1,10,67586.44402394698,18,10
3,46, 2,15, 0,Friday
23,4679685.384218084,10813.831043831517, 1,10,67586.44402394698,18,10
3,47, 2,16, 0,Saturday
23,6285539.2942270655,13517.288804789396, 1,10,60827.79962155229, 8,10
3,48, 2,17, 0,Sunday
23,6285539.2942270655,13517.288804789396, 1,10,60827.79962155229, 8,10
3,49, 2,18, 0,Monday
23,4679685.384218084,10813.831043831517, 1,10,67586.44402394698,18,10
3,50, 2,19, 0,Tuesday
23,4679685.384218084,10813.831043831517, 1,10,67586.44402394698,18,10
3,51, 2,20, 0,Wednesday
23,4679685.384218084,10813.831043831517, 1,10,67586.44402394698,18,10
3,52, 2,21, 0,Thursday
23,4679685.384218084,10813.831043831517, 1,10,67586.44402394698,18,10
3,53, 2,22, 0,Friday
23,4679685.384218084,10813.831043831517, 1,10,67586.44402394698,18,10
3,54, 2,23, 0,Saturday
23,6285539.2942270655,13517.288804789396, 1,10,60827.79962155229, 8,10
3,55, 2,24, 0,Sunday
23,6285539.2942270655,13517.288804789396, 1,10,60827.79962155229, 8,10
3,56, 2,25, 0,Monday
23,4679685.384218084,10813.831043831517, 1,10,67586.44402394698,18,10
3,57, 2,26, 0,Tuesday
23,4679685.384218084,10813.831043831517, 1,10,67586.44402394698,18,10
3,58, 2,27, 0,Wednesday
23,4679685.384218084,10813.831043831517, 1,10,67586.44402394698,18,10
3,59, 2,28, 0,Thursday
23,4679685.384218084,10813.831043831517, 1,10,67586.44402394698,18,10
4,59, 2
1241,3092271294.9067597,99999999999999.0, 1,24,10,1934849.0277490169, 6, 8,10
1290,61998882.79967924,111.07520151329976,12, 2,20,-99999999999999.0, 4,24,10
3,60, 3, 1, 0,Friday
23,4679685.384218084,10813.831043831517, 1,10,67586.44402394698,18,10
3,61, 3, 2, 0,Saturday
23,6285539.2942270655,13517.288804789396, 1,10,60827.79962155229, 8,10
3,62, 3, 3, 0,Sunday
23,6285539.2942270655,13517.288804789396, 1,10,60827.79962155229, 8,10
3,63, 3, 4, 0,Monday
23,4679685.384218084,10813.831043831517, 1,10,67586.44402394698,18,10
3,64, 3, 5, 0,Tuesday
23,4679685.384218084,10813.831043831517, 1,10,67586.44402394698,18,10
3,65, 3, 6, 0,Wednesday
23,4679685.384218084,10813.831043831517, 1,10,67586.44402394698,18,10
3,66, 3, 7, 0,Thursday
23,4679685.384218084,10813.831043831517, 1,10,67586.44402394698,18,10
3,67, 3, 8, 0,Friday
23,4679685.384218084,10813.831043831517, 1,10,67586.44402394698,18,10
3,68, 3, 9, 0,Saturday
23,6285539.2942270655,13517.288804789396, 1,10,60827.79962155229, 8,10
3,69, 3,10, 0,Sunday
23,6285539.2942270655,13517.288804789396, 1,10,60827.79962155229, 8,10
3,70, 3,11, 0,Monday
23,4679685.384218084,10813.831043831517, 1,10,67586.44402394698,18,10
3,71, 3,12, 0,Tuesday
23,4679685.384218084,10813.831043831517, 1,10,67586.44402394698,18,10
3,72, 3,13, 0,Wednesday
23,4679685.384218084,10813.831043831517, 1,10,67586.44402394698,18,10
3,73, 3,14, 0,Thursday
23,4679685.384218084,10813.831043831517, 1,10,67586.44402394698,18,10
3,74, 3,15, 0,Friday
23,4679685.384218084,10813.831043831517, 1,10,67586.44402394698,18,10
3,75, 3,16, 0,Saturday
23,6285539.2942270655,13517.288804789396, 1,10,60827.79962155229, 8,10
3,76, 3,17, 0,Sunday
23,6285539.2942270655,13517.288804789396, 1,10,60827.79962155229, 8,10
3,77, 3,18, 0,Monday
23,4679685.384218084,10813.831043831517, 1,10,67586.44402394698,18,10
3,78, 3,19, 0,Tuesday
23,4679685.384218084,10813.831043831517, 1,10,67586.44402394698,18,10
3,79, 3,20, 0,Wednesday
23,4679685.384218084,10813.831043831517, 1,10,67586.44402394698,18,10
3,80, 3,21, 0,Thursday
23,4679685.384218084,10813.831043831517, 1,10,67586.44402394698,18,10
3,81, 3,22, 0,Friday
23,4679685.384218084,10813.831043831517, 1,10,67586.44402394698,18,10
3,82, 3,23, 0,Saturday
23,6285539.2942270655,13517.288804789396, 1,10,60827.79962155229, 8,10
3,83, 3,24, 0,Sunday
23,6285539.2942270655,13517.288804789396, 1,10,60827.79962155229, 8,10
3,84, 3,25, 0,Monday
23,4679685.384218084,10813.831043831517, 1,10,67586.44402394698,18,10
3,85, 3,26, 0,Tuesday
23,4679685.384218084,10813.831043831517, 1,10,67586.44402394698,18,10
3,86, 3,27, 0,Wednesday
23,4679685.384218084,10813.831043831517, 1,10,67586.44402394698,18,10
3,87, 3,28, 0,Thursday
23,4679685.384218084,10813.831043831517, 1,10,67586.44402394698,18,10
3,88, 3,29, 0,Friday
23,4679685.384218084,10813.831043831517, 1,10,67586.44402394698,18,10
3,89, 3,30, 0,Saturday
23,6285539.2942270655,13517.288804789396, 1,10,60827.79962155229, 8,10
3,90, 3,31, 0,Sunday
23,6285539.2942270655,13517.288804789396, 1,10,60827.79962155229, 8,10
4,90, 3
1241,2670846608.8691225,99999999999999.0, 1,24,10,-99999999999999.0, 6, 8,10
1290,91471613.99140294,99999999999999.0,12, 2,20,-99999999999999.0, 4,24,10
3,91, 4, 1, 0,Monday
23,4679685.384218084,10813.831043831517, 1,10,67586.44402394698,18,10
3,92, 4, 2, 0,Tuesday
23,4679685.384218084,10813.831043831517, 1,10,67586.44402394698,18,10
3,93, 4, 3, 0,Wednesday
23,4679685.384218084,10813.831043831517, 1,10,67586.44402394698,18,10
3,94, 4, 4, 0,Thursday
23,4679685.384218084,10813.831043831517, 1,10,67586.44402394698,18,10
3,95, 4, 5, 0,Friday
23,4679685.384218084,10813.831043831517, 1,10,67586.44402394698,18,10
3,96, 4, 6, 0,Saturday
23,6285539.2942270655,13517.288804789396, 1,10,60827.79962155229, 8,10
3,97, 4, 7, 0,Sunday
23,6285539.2942270655,13517.288804789396, 1,10,60827.79962155229, 8,10
3,98, 4, 8, 0,Monday
23,4679685.384218084,10813.831043831517, 1,10,67586.44402394698,18,10
3,99, 4, 9, 0,Tuesday
23,4679685.384218084,10813.831043831517, 1,10,67586.44402394698,18,10
3,100, 4,10, 0,Wednesday
23,4679685.384218084,10813.831043831517, 1,10,67586.44402394698,18,10
3,101, 4,11, 0,Thursday
23,4679685.384218084,10813.831043831517, 1,10,67586.44402394698,18,10
3,102, 4,12, 0,Friday
23,4679685.384218084,10813.831043831517, 1,10,67586.44402394698,18,10
3,103, 4,13, 0,Saturday
23,6285539.2942270655,13517.288804789396, 1,10,60827.79962155229, 8,10
3,104, 4,14, 0,Sunday
23,6285539.2942270655,13517.288804789396, 1,10,60827.79962155229, 8,10
3,105, 4,15, 0,Monday
23,4679685.384218084,10813.831043831517, 1,10,67586.44402394698,18,10
3,106, 4,16, 0,Tuesday
23,4679685.384218084,10813.831043831517, 1,10,67586.44402394698,18,10
3,107, 4,17, 0,Wednesday
23,4679685.384218084,10813.831043831517, 1,10,67586.44402394698,18,10
3,108, 4,18, 0,Thursday
23,4679685.384218084,10813.831043831517, 1,10,67586.44402394698,18,10
3,109, 4,19, 0,Friday
23,4679685.384218084,10813.831043831517, 1,10,67586.44402394698,18,10
3,110, 4,20, 0,Saturday
23,6285539.2942270655,13517.288804789396, 1,10,60827.79962155229, 8,10
3,111, 4,21, 0,Sunday
23,6285539.2942270655,13517.288804789396, 1,10,60827.79962155229, 8,10
3,112, 4,22, 0,Monday
23,4679685.384218084,10813.831043831517, 1,10,67586.44402394698,18,10
3,113, 4,23, 0,Tuesday
23,4679685.384218084,10813.831043831517, 1,10,67586.44402394698,18,10
3,114, 4,24, 0,Wednesday
23,4679685.384218084,10813.831043831517, 1,10,67586.44402394698,18,10
3,115, 4,25, 0,Thursday
23,4679685.384218084,10813.831043831517, 1,10,67586.44402394698,18,10
3,116, 4,26, 0,Friday
23,4679685.384218084,10813.831043831517, 1,10,67586.44402394698,18,10
3,117, 4,27, 0,Saturday
23,6285539.2942270655,13517.288804789396, 1,10,60827.79962155229, 8,10
3,118, 4,28, 0,Sunday
23,6285539.2942270655,13517.288804789396, 1,10,60827.79962155229, 8,10
3,119, 4,29, 0,Monday
23,4679685.384218084,10813.831043831517, 1,10,67586.44402394698,18,10
3,120, 4,30, 0,Tuesday
23,4679685.384218084,10813.831043831517, 1,10,67586.44402394698,18,10
4,120, 4
1241,1293312455.4647684,99999999999999.0, 1,24,10,-99999999999999.0, 6, 8,10
1290,195254879.42414808,105.61242233140922,12,21,10,-99999999999999.0, 4,24,10
3,121, 5, 1, 0,Wednesday
23,4679685.384218084,10813.831043831517, 1,10,67586.44402394698,18,10
3,122, 5, 2, 0,Thursday
23,4679685.384218084,10813.831043831517, 1,10,67586.44402394698,18,10
3,123, 5, 3, 0,Friday
23,4679685.384218084,10813.831043831517, 1,10,67586.44402394698,18,10
3,124, 5, 4, 0,Saturday
23,6285539.2942270655,13517.288804789396, 1,10,60827.79962155229, 8,10
3,125, 5, 5, 0,Sunday
23,6285539.2942270655,13517.288804789396, 1,10,60827.79962155229, 8,10
3,126, 5, 6, 0,Monday
23,4679685.384218084,10813.831043831517, 1,10,67586.44402394698,18,10
3,127, 5, 7, 0,Tuesday
23,4679685.384218084,10813.831043831517, 1,10,67586.44402394698,18,10
3,128, 5, 8, 0,Wednesday
23,4679685.384218084,10813.831043831517, 1,10,67586.44402394698,18,10
3,129, 5, 9, 0,Thursday
23,4679685.384218084,10813.831043831517, 1,10,67586.44402394698,18,10
3,130, 5,10, 0,Friday
23,4679685.384218084,10813.831043831517, 1,10,67586.44402394698,18,10
3,131, 5,11, 0,Saturday
23,6285539.2942270655,13517.288804789396, 1,10,60827.79962155229, 8,10
3,132, 5,12, 0,Sunday
23,6285539.2942270655,13517.288804789396, 1,10,60827.79962155229, 8,10
3,133, 5,13, 0,Monday
23,4679685.384218084,10813.831043831517, 1,10,67586.44402394698,18,10
3,134, 5,14, 0,Tuesday
23,4679685.384218084,10813.831043831517, 1,10,67586.44402394698,18,10
3,135, 5,15, 0,Wednesday
23,4679685.384218084,10813.831043831517, 1,10,67586.44402394698,18,10
3,136, 5,16, 0,Thursday
23,4679685.384218084,10813.831043831517, 1,10,67586.44402394698,18,10
3,137, 5,17, 0,Friday
23,4679685.384218084,10813.831043831517, 1,10,67586.44402394698,18,10
3,138, 5,18, 0,Saturday
23,6285539.2942270655,13517.288804789396, 1,10,60827.79962155229, 8,10
3,139, 5,19, 0,Sunday
23,6285539.2942270655,13517.288804789396, 1,10,60827.79962155229, 8,10
3,140, 5,20, 0,Monday
23,4679685.384218084,10813.831043831517, 1,10,67586.44402394698,18,10
3,141, 5,21, 0,Tuesday
23,4679685.384218084,10813.831043831517, 1,10,67586.44402394698,18,10
3,142, 5,22, 0,Wednesday
23,4679685.384218084,10813.831043831517, 1,10,67586.44402394698,18,10
3,143, 5,23, 0,Thursday
23,4679685.384218084,10813.831043831517, 1,10,67586.44402394698,18,10
3,144, 5,24, 0,Friday
23,4679685.384218084,10813.831043831517, 1,10,67586.44402394698,18,10
3,145, 5,25, 0,Saturday
23,6285539.2942270655,13517.288804789396, 1,10,60827.79962155229, 8,10
3,146, 5,26, 0,Sunday
23,6285539.2942270655,13517.288804789396, 1,10,60827.79962155229, 8,10
3,147, 5,27, 0,Monday
23,4679685.384218084,10813.831043831517, 1,10,67586.44402394698,18,10
3,148, 5,28, 0,Tuesday
23,4679685.384218084,10813.831043831517, 1,10,67586.44402394698,18,10
3,149, 5,29, 0,Wednesday
23,4679685.384218084,10813.831043831517, 1,10,67586.44402394698,18,10
3,150, 5,30, 0,Thursday
23,4679685.384218084,10813.831043831517, 1,10,67586.44402394698,18,10
3,151, 5,31, 0,Friday
23,4679685.384218084,10813.831043831517, 1,10,67586.44402394698,18,10
4,151, 5
1241,184984191.103631,99999999999999.0, 1,24,10,-99999999999999.0, 6, 8,10
1290,392341737.1891729,99999999999999.0,12,21,10,444892.8843655217,28,15,10
3,152, 6, 1, 0,Saturday
23,6285539.2942270655,13517.288804789396, 1,10,60827.79962155229, 8,10
3,153, 6, 2, 0,Sunday
23,6285539.2942270655,13517.288804789396, 1,10,60827.79962155229, 8,10
3,154, 6, 3, 0,Monday
23,4679685.384218084,10813.831043831517, 1,10,67586.44402394698,18,10
3,155, 6, 4, 0,Tuesday
23,4679685.384218084,10813.831043831517, 1,10,67586.44402394698,18,10
3,156, 6, 5, 0,Wednesday
23,4679685.384218084,10813.831043831517, 1,10,67586.44402394698,18,10
3,157, 6, 6, 0,Thursday
23,4679685.384218084,10813.831043831517, 1,10,67586.44402394698,18,10
3,158, 6, 7, 0,Friday
23,4679685.384218084,10813.831043831517, 1,10,67586.44402394698,18,10
3,159, 6, 8, 0,Saturday
23,6285539.2942270655,13517.288804789396, 1,10,60827.79962155229, 8,10
3,160, 6, 9, 0,Sunday
23,6285539.2942270655,13517.288804789396, 1,10,60827.79962155229, 8,10
3,161, 6,10, 0,Monday
23,4679685.384218084,10813.831043831517, 1,10,67586.44402394698,18,10
3,162, 6,11, 0,Tuesday
23,4679685.384218084,10813.831043831517, 1,10,67586.44402394698,18,10
3,163, 6,12, 0,Wednesday
23,4679685.384218084,10813.831043831517, 1,10,67586.44402394698,18,10
3,164, 6,13, 0,Thursday
23,4679685.384218084,10813.831043831517, 1,10,67586.44402394698,18,10
3,165, 6,14, 0,Friday
23,4679685.384218084,10813.831043831517, 1,10,67586.44402394698,18,10
3,166, 6,15, 0,Saturday
23,6285539.2942270655,13517.288804789396, 1,10,60827.79962155229, 8,10
3,167, 6,16, 0,Sunday
23,6285539.2942270655,13517.288804789396, 1,10,60827.79962155229, 8,10
3,168, 6,17, 0,Monday
23,4679685.384218084,10813.831043831517, 1,10,67586.44402394698,18,10
3,169, 6,18, 0,Tuesday
23,4679685.384218084,10813.831043831517, 1,10,67586.44402394698,18,10
3,170, 6,19, 0,Wednesday
23,4679685.384218084,10813.831043831517, 1,10,67586.44402394698,18,10
3,171, 6,20, 0,Thursday
23,4679685.384218084,10813.831043831517, 1,10,67586.44402394698,18,10
3,172, 6,21, 0,Friday
23,4679685.384218084,10813.831043831517, 1,10,67586.44402394698,18,10
3,173, 6,22, 0,Saturday
23,6285539.2942270655,13517.288804789396, 1,10,60827.79962155229, 8,10
3,174, 6,23, 0,Sunday
23,6285539.2942270655,13517.288804789396, 1,10,60827.79962155229, 8,10
3,175, 6,24, 0,Monday
23,4679685.384218084,10813.831043831517, 1,10,67586.44402394698,18,10
3,176, 6,25, 0,Tuesday
23,4679685.384218084,10813.831043831517, 1,10,67586.44402394698,18,10
3,177, 6,26, 0,Wednesday
23,4679685.384218084,10813.831043831517, 1,10,67586.44402394698,18,10
3,178, 6,27, 0,Thursday
23,4679685.384218084,10813.831043831517, 1,10,67586.44402394698,18,10
3,179, 6,28, 0,Friday
23,4679685.384218084,10813.831043831517, 1,10,67586.44402394698,18,10
3,180, 6,29, 0,Saturday
23,6285539.2942270655,13517.288804789396, 1,10,60827.79962155229, 8,10
3,181, 6,30, 0,Sunday
23,6285539.2942270655,13517.288804789396, 1,10,60827.79962155229, 8,10
4,181, 6
1241,34956355.67189796,99999999999999.0, 1,24,10,-99999999999999.0, 6, 8,10
1290,504085933.49768144,99999999999999.0,12,21,10,508652.7428920883,20,15,20
3,182, 7, 1, 0,Monday
23,4679685.384218084,10813.831043831517, 1,10,67586.44402394698,18,10
3,183, 7, 2, 0,Tuesday
23,4679685.384218084,10813.831043831517, 1,10,67586.44402394698,18,10
3,184, 7, 3, 0,Wednesday
23,4679685.384218084,10813.831043831517, 1,10,67586.44402394698,18,10
3,185, 7, 4, 0,Thursday
23,4679685.384218084,10813.831043831517, 1,10,67586.44402394698,18,10
3,186, 7, 5, 0,Friday
23,4679685.384218084,10813.831043831517, 1,10,67586.44402394698,18,10
3,187, 7, 6, 0,Saturday
23,6285539.2942270655,13517.288804789396, 1,10,60827.79962155229, 8,10
3,188, 7, 7, 0,Sunday
23,6285539.2942270655,13517.288804789396, 1,10,60827.79962155229, 8,10
3,189, 7, 8, 0,Monday
23,4679685.384218084,10813.831043831517, 1,10,67586.44402394698,18,10
3,190, 7, 9, 0,Tuesday
23,4679685.384218084,10813.831043831517, 1,10,67586.44402394698,18,10
3,191, 7,10, 0,Wednesday
23,4679685.384218084,10813.831043831517, 1,10,67586.44402394698,18,10
3,192, 7,11, 0,Thursday
23,4679685.384218084,10813.831043831517, 1,10,67586.44402394698,18,10
3,193, 7,12, 0,Friday
23,4679685.384218084,10813.831043831517, 1,10,67586.44402394698,18,10
3,194, 7,13, 0,Saturday
23,6285539.2942270655,13517.288804789396, 1,10,60827.79962155229, 8,10
3,195, 7,14, 0,Sunday
23,6285539.2942270655,13517.288804789396, 1,10,60827.79962155229, 8,10
3,196, 7,15, 0,Monday
23,4679685.384218084,10813.831043831517, 1,10,67586.44402394698,18,10
3,197, 7,16, 0,Tuesday
23,4679685.384218084,10813.831043831517, 1,10,67586.44402394698,18,10
3,198, 7,17, 0,Wednesday
23,4679685.384218084,10813.831043831517, 1,10,67586.44402394698,18,10
3,199, 7,18, 0,Thursday
23,4679685.384218084,10813.831043831517, 1,10,67586.44402394698,18,10
3,200, 7,19, 0,Friday
23,4679685.384218084,10813.831043831517, 1,10,67586.44402394698,18,10
3,201, 7,20, 0,Saturday
23,6285539.2942270655,13517.288804789396, 1,10,60827.79962155229, 8,10
3,202, 7,21, 0,Sunday
23,6285539.2942270655,13517.288804789396, 1,10,60827.79962155229, 8,10
3,203, 7,22, 0,Monday
23,4679685.384218084,10813.831043831517, 1,10,67586.44402394698,18,10
3,204, 7,23, 0,Tuesday
23,4679685.384218084,10813.831043831517, 1,10,67586.44402394698,18,10
3,205, 7,24, 0,Wednesday
23,4679685.384218084,10813.831043831517, 1,10,67586.44402394698,18,10
3,206, 7,25, 0,Thursday
23,4679685.384218084,10813.831043831517, 1,10,67586.44402394698,18,10
3,207, 7,26, 0,Friday
23,4679685.384218084,10813.831043831517, 1,10,67586.44402394698,18,10
3,208, 7,27, 0,Saturday
23,6285539.2942270655,13517.288804789396, 1,10,60827.79962155229, 8,10
3,209, 7,28, 0,Sunday
23,6285539.2942270655,13517.288804789396, 1,10,60827.79962155229, 8,10
3,210, 7,29, 0,Monday
23,4679685.384218084,10813.831043831517, 1,10,67586.44402394698,18,10
3,211, 7,30, 0,Tuesday
23,4679685.384218084,10813.831043831517, 1,10,67586.44402394698,18,10
3,212, 7,31, 0,Wednesday
23,4679685.384218084,10813.831043831517, 1,10,67586.44402394698,18,10
4,212, 7
1241,6739957.178265412,99999999999999.0, 1,24,10,-99999999999999.0, 6, 8,10
1290,540358159.5870957,99999999999999.0,12,21,10,-99999999999999.0,20,15,20
3,213, 8, 1, 0,Thursday
23,4679685.384218084,10813.831043831517, 1,10,67586.44402394698,18,10
3,214, 8, 2, 0,Friday
23,4679685.384218084,10813.831043831517, 1,10,67586.44402394698,18,10
3,215, 8, 3, 0,Saturday
23,6285539.2942270655,13517.288804789396, 1,10,60827.79962155229, 8,10
3,216, 8, 4, 0,Sunday
23,6285539.2942270655,13517.288804789396, 1,10,60827.79962155229, 8,10
3,217, 8, 5, 0,Monday
23,4679685.384218084,10813.831043831517, 1,10,67586.44402394698,18,10
3,218, 8, 6, 0,Tuesday
23,4679685.384218084,10813.831043831517, 1,10,67586.44402394698,18,10
3,219, 8, 7, 0,Wednesday
23,4679685.384218084,10813.831043831517, 1,10,67586.44402394698,18,10
3,220, 8, 8, 0,Thursday
23,4679685.384218084,10813.831043831517, 1,10,67586.44402394698,18,10
3,221, 8, 9, 0,Friday
23,4679685.384218084,10813.831043831517, 1,10,67586.44402394698,18,10
3,222, 8,10, 0,Saturday
23,6285539.2942270655,13517.288804789396, 1,10,60827.79962155229, 8,10
3,223, 8,11, 0,Sunday
23,6285539.2942270655,13517.288804789396, 1,10,60827.79962155229, 8,10
3,224, 8,12, 0,Monday
23,4679685.384218084,10813.831043831517, 1,10,67586.44402394698,18,10
3,225, 8,13, 0,Tuesday
23,4679685.384218084,10813.831043831517, 1,10,67586.44402394698,18,10
3,226, 8,14, 0,Wednesday
23,4679685.384218084,10813.831043831517, 1,10,67586.44402394698,18,10
3,227, 8,15, 0,Thursday
23,4679685.384218084,10813.831043831517, 1,10,67586.44402394698,18,10
3,228, 8,16, 0,Friday
23,4679685.384218084,10813.831043831517, 1,10,67586.44402394698,18,10
3,229, 8,17, 0,Saturday
23,6285539.2942270655,13517.288804789396, 1,10,60827.79962155229, 8,10
3,230, 8,18, 0,Sunday
23,6285539.2942270655,13517.288804789396, 1,10,60827.79962155229, 8,10
3,231, 8,19, 0,Monday
23,4679685.384218084,10813.831043831517, 1,10,67586.44402394698,18,10
3,232, 8,20, 0,Tuesday
23,4679685.384218084,10813.831043831517, 1,10,67586.44402394698,18,10
3,233, 8,21, 0,Wednesday
23,4679685.384218084,10813.831043831517, 1,10,67586.44402394698,18,10
3,234, 8,22, 0,Thursday
23,4679685.384218084,10813.831043831517, 1,10,67586.44402394698,18,10
3,235, 8,23, 0,Friday
23,4679685.384218084,10813.831043831517, 1,10,67586.44402394698,18,10
3,236, 8,24, 0,Saturday
23,6285539.2942270655,13517.288804789396, 1,10,60827.79962155229, 8,10
3,237, 8,25, 0,Sunday
23,6285539.2942270655,13517.288804789396, 1,10,60827.79962155229, 8,10
3,238, 8,26, 0,Monday
23,4679685.384218084,10813.831043831517, 1,10,67586.44402394698,18,10
3,239, 8,27, 0,Tuesday
23,4679685.384218084,10813.831043831517, 1,10,67586.44402394698,18,10
3,240, 8,28, 0,Wednesday
23,4679685.384218084,10813.831043831517, 1,10,67586.44402394698,18,10
3,241, 8,29, 0,Thursday
23,4679685.384218084,10813.831043831517, 1,10,67586.44402394698,18,10
3,242, 8,30, 0,Friday
23,4679685.384218084,10813.831043831517, 1,10,67586.44402394698,18,10
3,243, 8,31, 0,Saturday
23,6285539.2942270655,13517.288804789396, 1,10,60827.79962155229, 8,10
4,243, 8
1241,16060357.112993639,99999999999999.0, 1,24,10,-99999999999999.0, 6, 8,10
1290,417263490.9584414,99999999999999.0,12,21,10,-99999999999999.0,20,15,20
3,244, 9, 1, 0,Sunday
23,6285539.2942270655,13517.288804789396, 1,10,60827.79962155229, 8,10
3,245, 9, 2, 0,Monday
23,4679685.384218084,10813.831043831517, 1,10,67586.44402394698,18,10
3,246, 9, 3, 0,Tuesday
23,4679685.384218084,10813.831043831517, 1,10,67586.44402394698,18,10
3,247, 9, 4, 0,Wednesday
23,4679685.384218084,10813.831043831517, 1,10,67586.44402394698,18,10
3,248, 9, 5, 0,Thursday
23,4679685.384218084,10813.831043831517, 1,10,67586.44402394698,18,10
3,249, 9, 6, 0,Friday
23,4679685.384218084,10813.831043831517, 1,10,67586.44402394698,18,10
3,250, 9, 7, 0,Saturday
23,6285539.2942270655,13517.288804789396, 1,10,60827.79962155229, 8,10
3,251, 9, 8, 0,Sunday
23,6285539.2942270655,13517.288804789396, 1,10,60827.79962155229, 8,10
3,252, 9, 9, 0,Monday
23,4679685.384218084,10813.831043831517, 1,10,67586.44402394698,18,10
3,253, 9,10, 0,Tuesday
23,4679685.384218084,10813.831043831517, 1,10,67586.44402394698,18,10
3,254, 9,11, 0,Wednesday
23,4679685.384218084,10813.831043831517, 1,10,67586.44402394698,18,10
3,255, 9,12, 0,Thursday
23,4679685.384218084,10813.831043831517, 1,10,67586.44402394698,18,10
3,256, 9,13, 0,Friday
23,4679685.384218084,10813.831043831517, 1,10,67586.44402394698,18,10
3,257, 9,14, 0,Saturday
23,6285539.2942270655,13517.288804789396, 1,10,60827.79962155229, 8,10
3,258, 9,15, 0,Sunday
23,6285539.2942270655,13517.288804789396, 1,10,60827.79962155229, 8,10
3,259, 9,16, 0,Monday
23,4679685.384218084,10813.831043831517, 1,10,67586.44402394698,18,10
3,260, 9,17, 0,Tuesday
23,4679685.384218084,10813.831043831517, 1,10,67586.44402394698,18,10
3,261, 9,18, 0,Wednesday
23,4679685.384218084,10813.831043831517, 1,10,67586.44402394698,18,10
3,262, 9,19, 0,Thursday
23,4679685.384218084,10813.831043831517, 1,10,67586.44402394698,18,10
3,263, 9,20, 0,Friday
23,4679685.384218084,10813.831043831517, 1,10,67586.44402394698,18,10
3,264, 9,21, 0,Saturday
23,6285539.2942270655,13517.288804789396, 1,10,60827.79962155229, 8,10
3,265, 9,22, 0,Sunday
23,6285539.2942270655,13517.288804789396, 1,10,60827.79962155229, 8,10
3,266, 9,23, 0,Monday
23,4679685.384218084,10813.831043831517, 1,10,67586.44402394698,18,10
3,267, 9,24, 0,Tuesday
23,4679685.384218084,10813.831043831517, 1,10,67586.44402394698,18,10
3,268, 9,25, 0,Wednesday
23,4679685.384218084,10813.831043831517, 1,10,67586.44402394698,18,10
3,269, 9,26, 0,Thursday
23,4679685.384218084,10813.831043831517, 1,10,67586.44402394698,18,10
3,270, 9,27, 0,Friday
23,4679685.384218084,10813.831043831517, 1,10,67586.44402394698,18,10
3,271, 9,28, 0,Saturday
23,6285539.2942270655,13517.288804789396, 1,10,60827.79962155229, 8,10
3,272, 9,29, 0,Sunday
23,6285539.2942270655,13517.288804789396, 1,10,60827.79962155229, 8,10
3,273, 9,30, 0,Monday
23,4679685.384218084,10813.831043831517, 1,10,67586.44402394698,18,10
4,273, 9
1241,209452173.85808924,99999999999999.0, 1,24,10,-99999999999999.0, 6, 8,10
1290,298545569.4994703,99999999999999.0,12,21,10,-99999999999999.0,20,15,20
3,274,10, 1, 0,Tuesday
23,4679685.384218084,10813.831043831517, 1,10,67586.44402394698,18,10
3,275,10, 2, 0,Wednesday
23,4679685.384218084,10813.831043831517, 1,10,67586.44402394698,18,10
3,276,10, 3, 0,Thursday
23,4679685.384218084,10813.831043831517, 1,10,67586.44402394698,18,10
3,277,10, 4, 0,Friday
23,4679685.384218084,10813.831043831517, 1,10,67586.44402394698,18,10
3,278,10, 5, 0,Saturday
23,6285539.2942270655,13517.288804789396, 1,10,60827.79962155229, 8,10
3,279,10, 6, 0,Sunday
23,6285539.2942270655,13517.288804789396, 1,10,60827.79962155229, 8,10
3,280,10, 7, 0,Monday
23,4679685.384218084,10813.831043831517, 1,10,67586.44402394698,18,10
3,281,10, 8, 0,Tuesday
23,4679685.384218084,10813.831043831517, 1,10,67586.44402394698,18,10
3,282,10, 9, 0,Wednesday
23,4679685.384218084,10813.831043831517, 1,10,67586.44402394698,18,10
3,283,10,10, 0,Thursday
23,4679685.384218084,10813.831043831517, 1,10,67586.44402394698,18,10
3,284,10,11, 0,Friday
23,4679685.384218084,10813.831043831517, 1,10,67586.44402394698,18,10
3,285,10,12, 0,Saturday
23,6285539.2942270655,13517.288804789396, 1,10,60827.79962155229, 8,10
3,286,10,13, 0,Sunday
23,6285539.2942270655,13517.288804789396, 1,10,60827.79962155229, 8,10
3,287,10,14, 0,Monday
23,4679685.384218084,10813.831043831517, 1,10,67586.44402394698,18,10
3,288,10,15, 0,Tuesday
23,4679685.384218084,10813.831043831517, 1,10,67586.44402394698,18,10
3,289,10,16, 0,Wednesday
23,4679685.384218084,10813.831043831517, 1,10,67586.44402394698,18,10
3,290,10,17, 0,Thursday
23,4679685.384218084,10813.831043831517, 1,10,67586.44402394698,18,10
3,291,10,18, 0,Friday
23,4679685.384218084,10813.831043831517, 1,10,67586.44402394698,18,10
3,292,10,19, 0,Saturday
23,6285539.2942270655,13517.288804789396, 1,10,60827.79962155229, 8,10
3,293,10,20, 0,Sunday
23,6285539.2942270655,13517.288804789396, 1,10,60827.79962155229, 8,10
3,294,10,21, 0,Monday
23,4679685.384218084,10813.831043831517, 1,10,67586.44402394698,18,10
3,295,10,22, 0,Tuesday
23,4679685.384218084,10813.831043831517, 1,10,67586.44402394698,18,10
3,296,10,23, 0,Wednesday
23,4679685.384218084,10813.831043831517, 1,10,67586.44402394698,18,10
3,297,10,24, 0,Thursday