Program Version,EnergyPlus, Version 22.2.0-c249759bad, YMD=2025.06.25 17:35
1,5,Environment Title[],Latitude[deg],Longitude[deg],Time Zone[],Elevation[m]
2,8,Day of Simulation[],Month[],Day of Month[],DST Indicator[1=yes 0=no],Hour[],StartMinute[],EndMinute[],DayType
3,5,Cumulative Day of Simulation[],Month[],Day of Month[],DST Indicator[1=yes 0=no],DayType  ! When Daily Report Variables Requested
4,2,Cumulative Days of Simulation[],Month[]  ! When Monthly Report Variables Requested
5,1,Cumulative Days of Simulation[] ! When Run Period Report Variables Requested
6,1,Calendar Year of Simulation[] ! When Annual Report Variables Requested
7,9,Environment,Site Outdoor Air Drybulb Temperature [C] !Monthly [Value,Min,Day,Hour,Minute,Max,Day,Hour,Minute]
8,9,Environment,Site Outdoor Air Relative Humidity [%] !Monthly [Value,Min,Day,Hour,Minute,Max,Day,Hour,Minute]
9,9,Environment,Site Diffuse Solar Radiation Rate per Area [W/m2] !Monthly [Value,Min,Day,Hour,Minute,Max,Day,Hour,Minute]
206,9,ZONE1,Zone Mean Radiant Temperature [C] !Monthly [Value,Min,Day,Hour,Minute,Max,Day,Hour,Minute]
207,9,ZONE1,Zone Windows Total Transmitted Solar Radiation Rate [W] !Monthly [Value,Min,Day,Hour,Minute,Max,Day,Hour,Minute]
208,9,ZONE1,Zone Windows Total Transmitted Solar Radiation Energy [J] !Monthly [Value,Min,Day,Hour,Minute,Max,Day,Hour,Minute]
209,9,ZONE1_WALL_2,Surface Outside Face Incident Solar Radiation Rate per Area [W/m2] !Monthly [Value,Min,Day,Hour,Minute,Max,Day,Hour,Minute]
210,9,ZONE1_WALL_3,Surface Outside Face Incident Solar Radiation Rate per Area [W/m2] !Monthly [Value,Min,Day,Hour,Minute,Max,Day,Hour,Minute]
211,9,ZONE1_ROOF,Surface Outside Face Incident Solar Radiation Rate per Area [W/m2] !Monthly [Value,Min,Day,Hour,Minute,Max,Day,Hour,Minute]
212,9,ZONE1_WALL_2 WINDOW,Surface Outside Face Incident Solar Radiation Rate per Area [W/m2] !Monthly [Value,Min,Day,Hour,Minute,Max,Day,Hour,Minute]
213,9,ZONE1_WALL_2 WINDOW,Surface Window Transmitted Solar Radiation Rate [W] !Monthly [Value,Min,Day,Hour,Minute,Max,Day,Hour,Minute]
214,9,ZONE1_WALL_2 WINDOW,Surface Window Transmitted Beam Solar Radiation Rate [W] !Monthly [Value,Min,Day,Hour,Minute,Max,Day,Hour,Minute]
215,9,ZONE1_WALL_2 WINDOW,Surface Window Transmitted Diffuse Solar Radiation Rate [W] !Monthly [Value,Min,Day,Hour,Minute,Max,Day,Hour,Minute]
216,9,ZONE1_WALL_2 WINDOW,Surface Window Heat Gain Rate [W] !Monthly [Value,Min,Day,Hour,Minute,Max,Day,Hour,Minute]
217,9,ZONE1_WALL_2 WINDOW,Surface Window Heat Loss Rate [W] !Monthly [Value,Min,Day,Hour,Minute,Max,Day,Hour,Minute]
218,9,ZONE1_WALL_2 WINDOW,Surface Window Shading Device Absorbed Solar Radiation Rate [W] !Monthly [Value,Min,Day,Hour,Minute,Max,Day,Hour,Minute]
219,9,ZONE1_WALL_2 WINDOW,Surface Window Heat Gain Energy [J] !Monthly [Value,Min,Day,Hour,Minute,Max,Day,Hour,Minute]
220,9,ZONE1_WALL_2 WINDOW,Surface Window Heat Loss Energy [J] !Monthly [Value,Min,Day,Hour,Minute,Max,Day,Hour,Minute]
221,9,ZONE1_WALL_3 WINDOW,Surface Outside Face Incident Solar Radiation Rate per Area [W/m2] !Monthly [Value,Min,Day,Hour,Minute,Max,Day,Hour,Minute]
222,9,ZONE1_WALL_3 WINDOW,Surface Window Transmitted Solar Radiation Rate [W] !Monthly [Value,Min,Day,Hour,Minute,Max,Day,Hour,Minute]
223,9,ZONE1_WALL_3 WINDOW,Surface Window Transmitted Beam Solar Radiation Rate [W] !Monthly [Value,Min,Day,Hour,Minute,Max,Day,Hour,Minute]
224,9,ZONE1_WALL_3 WINDOW,Surface Window Transmitted Diffuse Solar Radiation Rate [W] !Monthly [Value,Min,Day,Hour,Minute,Max,Day,Hour,Minute]
225,9,ZONE1_WALL_3 WINDOW,Surface Window Heat Gain Rate [W] !Monthly [Value,Min,Day,Hour,Minute,Max,Day,Hour,Minute]
226,9,ZONE1_WALL_3 WINDOW,Surface Window Heat Loss Rate [W] !Monthly [Value,Min,Day,Hour,Minute,Max,Day,Hour,Minute]
227,9,ZONE1_WALL_3 WINDOW,Surface Window Shading Device Absorbed Solar Radiation Rate [W] !Monthly [Value,Min,Day,Hour,Minute,Max,Day,Hour,Minute]
228,9,ZONE1_WALL_3 WINDOW,Surface Window Heat Gain Energy [J] !Monthly [Value,Min,Day,Hour,Minute,Max,Day,Hour,Minute]
229,9,ZONE1_WALL_3 WINDOW,Surface Window Heat Loss Energy [J] !Monthly [Value,Min,Day,Hour,Minute,Max,Day,Hour,Minute]
230,9,ZONE1_WALL_0,Surface Inside Face Temperature [C] !Monthly [Value,Min,Day,Hour,Minute,Max,Day,Hour,Minute]
231,9,ZONE1_WALL_0,Surface Outside Face Temperature [C] !Monthly [Value,Min,Day,Hour,Minute,Max,Day,Hour,Minute]
232,9,ZONE1_WALL_0,Surface Inside Face Conduction Heat Transfer Rate [W] !Monthly [Value,Min,Day,Hour,Minute,Max,Day,Hour,Minute]
233,9,ZONE1_WALL_1,Surface Inside Face Temperature [C] !Monthly [Value,Min,Day,Hour,Minute,Max,Day,Hour,Minute]
234,9,ZONE1_WALL_1,Surface Outside Face Temperature [C] !Monthly [Value,Min,Day,Hour,Minute,Max,Day,Hour,Minute]
235,9,ZONE1_WALL_1,Surface Inside Face Conduction Heat Transfer Rate [W] !Monthly [Value,Min,Day,Hour,Minute,Max,Day,Hour,Minute]
236,9,ZONE1_WALL_2,Surface Inside Face Temperature [C] !Monthly [Value,Min,Day,Hour,Minute,Max,Day,Hour,Minute]
237,9,ZONE1_WALL_2,Surface Outside Face Temperature [C] !Monthly [Value,Min,Day,Hour,Minute,Max,Day,Hour,Minute]
238,9,ZONE1_WALL_2,Surface Inside Face Conduction Heat Transfer Rate [W] !Monthly [Value,Min,Day,Hour,Minute,Max,Day,Hour,Minute]
239,9,ZONE1_WALL_3,Surface Inside Face Temperature [C] !Monthly [Value,Min,Day,Hour,Minute,Max,Day,Hour,Minute]
240,9,ZONE1_WALL_3,Surface Outside Face Temperature [C] !Monthly [Value,Min,Day,Hour,Minute,Max,Day,Hour,Minute]
241,9,ZONE1_WALL_3,Surface Inside Face Conduction Heat Transfer Rate [W] !Monthly [Value,Min,Day,Hour,Minute,Max,Day,Hour,Minute]
242,9,ZONE1_FLOOR,Surface Inside Face Temperature [C] !Monthly [Value,Min,Day,Hour,Minute,Max,Day,Hour,Minute]
243,9,ZONE1_FLOOR,Surface Outside Face Temperature [C] !Monthly [Value,Min,Day,Hour,Minute,Max,Day,Hour,Minute]
244,9,ZONE1_FLOOR,Surface Inside Face Conduction Heat Transfer Rate [W] !Monthly [Value,Min,Day,Hour,Minute,Max,Day,Hour,Minute]
245,9,ZONE1_ROOF,Surface Inside Face Temperature [C] !Monthly [Value,Min,Day,Hour,Minute,Max,Day,Hour,Minute]
246,9,ZONE1_ROOF,Surface Outside Face Temperature [C] !Monthly [Value,Min,Day,Hour,Minute,Max,Day,Hour,Minute]
247,9,ZONE1_ROOF,Surface Inside Face Conduction Heat Transfer Rate [W] !Monthly [Value,Min,Day,Hour,Minute,Max,Day,Hour,Minute]
248,9,ZONE1_WALL_2 WINDOW,Surface Inside Face Temperature [C] !Monthly [Value,Min,Day,Hour,Minute,Max,Day,Hour,Minute]
249,9,ZONE1_WALL_2 WINDOW,Surface Outside Face Temperature [C] !Monthly [Value,Min,Day,Hour,Minute,Max,Day,Hour,Minute]
250,9,ZONE1_WALL_2 WINDOW,Surface Shading Device Is On Time Fraction [] !Monthly [Value,Min,Day,Hour,Minute,Max,Day,Hour,Minute]
251,9,ZONE1_WALL_2 WINDOW,Surface Window Blind Slat Angle [deg] !Monthly [Value,Min,Day,Hour,Minute,Max,Day,Hour,Minute]
252,9,ZONE1_WALL_3 WINDOW,Surface Inside Face Temperature [C] !Monthly [Value,Min,Day,Hour,Minute,Max,Day,Hour,Minute]
253,9,ZONE1_WALL_3 WINDOW,Surface Outside Face Temperature [C] !Monthly [Value,Min,Day,Hour,Minute,Max,Day,Hour,Minute]
254,9,ZONE1_WALL_3 WINDOW,Surface Shading Device Is On Time Fraction [] !Monthly [Value,Min,Day,Hour,Minute,Max,Day,Hour,Minute]
255,9,ZONE1_WALL_3 WINDOW,Surface Window Blind Slat Angle [deg] !Monthly [Value,Min,Day,Hour,Minute,Max,Day,Hour,Minute]
256,9,ZONE1,Zone Mean Air Temperature [C] !Monthly [Value,Min,Day,Hour,Minute,Max,Day,Hour,Minute]
257,9,ZONE1,Zone Air Heat Balance Internal Convective Heat Gain Rate [W] !Monthly [Value,Min,Day,Hour,Minute,Max,Day,Hour,Minute]
258,9,ZONE1,Zone Air Heat Balance Surface Convection Rate [W] !Monthly [Value,Min,Day,Hour,Minute,Max,Day,Hour,Minute]
259,9,ZONE1,Zone Air Heat Balance Interzone Air Transfer Rate [W] !Monthly [Value,Min,Day,Hour,Minute,Max,Day,Hour,Minute]
260,9,ZONE1,Zone Air Heat Balance Outdoor Air Transfer Rate [W] !Monthly [Value,Min,Day,Hour,Minute,Max,Day,Hour,Minute]
261,9,ZONE1,Zone Air Heat Balance System Air Transfer Rate [W] !Monthly [Value,Min,Day,Hour,Minute,Max,Day,Hour,Minute]
262,9,ZONE1,Zone Air Heat Balance Air Energy Storage Rate [W] !Monthly [Value,Min,Day,Hour,Minute,Max,Day,Hour,Minute]
263,9,ZONE1,Zone Infiltration Sensible Heat Loss Energy [J] !Monthly [Value,Min,Day,Hour,Minute,Max,Day,Hour,Minute]
264,9,ZONE1,Zone Infiltration Sensible Heat Gain Energy [J] !Monthly [Value,Min,Day,Hour,Minute,Max,Day,Hour,Minute]
265,9,ZONE1,Zone Infiltration Latent Heat Loss Energy [J] !Monthly [Value,Min,Day,Hour,Minute,Max,Day,Hour,Minute]
266,9,ZONE1,Zone Infiltration Latent Heat Gain Energy [J] !Monthly [Value,Min,Day,Hour,Minute,Max,Day,Hour,Minute]
267,9,ZONE1,Zone Infiltration Standard Density Volume Flow Rate [m3/s] !Monthly [Value,Min,Day,Hour,Minute,Max,Day,Hour,Minute]
268,9,ZONE1,Zone Ventilation Sensible Heat Loss Energy [J] !Monthly [Value,Min,Day,Hour,Minute,Max,Day,Hour,Minute]
269,9,ZONE1,Zone Ventilation Sensible Heat Gain Energy [J] !Monthly [Value,Min,Day,Hour,Minute,Max,Day,Hour,Minute]
270,9,ZONE1,Zone Ventilation Latent Heat Loss Energy [J] !Monthly [Value,Min,Day,Hour,Minute,Max,Day,Hour,Minute]
271,9,ZONE1,Zone Ventilation Latent Heat Gain Energy [J] !Monthly [Value,Min,Day,Hour,Minute,Max,Day,Hour,Minute]
272,9,ZONE1,Zone Ventilation Standard Density Volume Flow Rate [m3/s] !Monthly [Value,Min,Day,Hour,Minute,Max,Day,Hour,Minute]
322,9,ZONE1,Zone Air System Sensible Heating Energy [J] !Monthly [Value,Min,Day,Hour,Minute,Max,Day,Hour,Minute]
407,9,ZONE1,Zone Air System Sensible Cooling Energy [J] !Monthly [Value,Min,Day,Hour,Minute,Max,Day,Hour,Minute]
456,9,ZONE1,Zone Air System Sensible Heating Rate [W] !Monthly [Value,Min,Day,Hour,Minute,Max,Day,Hour,Minute]
457,9,ZONE1,Zone Air System Sensible Cooling Rate [W] !Monthly [Value,Min,Day,Hour,Minute,Max,Day,Hour,Minute]
752,9,MYDHW_2_WATERHEATER,Water Heater Heating Energy [J] !Monthly [Value,Min,Day,Hour,Minute,Max,Day,Hour,Minute]
965,9,ZONE1,Zone Mechanical Ventilation Mass Flow Rate [kg/s] !Monthly [Value,Min,Day,Hour,Minute,Max,Day,Hour,Minute]
362,9,Heating:EnergyTransfer [J] !Monthly [Value,Min,Day,Hour,Minute,Max,Day,Hour,Minute]
411,9,Cooling:EnergyTransfer [J] !Monthly [Value,Min,Day,Hour,Minute,Max,Day,Hour,Minute]
14,7,Electricity:Facility [J] !Daily [Value,Min,Hour,Minute,Max,Hour,Minute]
End of Data Dictionary
1,RUN PERIOD 1,  52.46,   5.52,   1.00,  -3.90
3,1, 1, 1, 0,Tuesday
14,9105304.794636209,9825.231212028393, 1,10,171674.56586834037,10,10
3,2, 1, 2, 0,Wednesday
14,9105304.794636209,9825.231212028393, 1,10,171674.56586834037,10,10
3,3, 1, 3, 0,Thursday
14,9105304.794636209,9825.231212028393, 1,10,171674.56586834037,10,10
3,4, 1, 4, 0,Friday
14,9105304.794636209,9825.231212028393, 1,10,171674.56586834037,10,10
3,5, 1, 5, 0,Saturday
14,1414833.2945320872,9825.231212028393, 1,10,9825.231212028393, 1,10
3,6, 1, 6, 0,Sunday
14,1414833.2945320872,9825.231212028393, 1,10,9825.231212028393, 1,10
3,7, 1, 7, 0,Monday
14,9105304.794636209,9825.231212028393, 1,10,171674.56586834037,10,10
3,8, 1, 8, 0,Tuesday
14,9105304.794636209,9825.231212028393, 1,10,171674.56586834037,10,10
3,9, 1, 9, 0,Wednesday
14,9105304.794636209,9825.231212028393, 1,10,171674.56586834037,10,10
3,10, 1,10, 0,Thursday
14,9105304.794636209,9825.231212028393, 1,10,171674.56586834037,10,10
3,11, 1,11, 0,Friday
14,9105304.794636209,9825.231212028393, 1,10,171674.56586834037,10,10
3,12, 1,12, 0,Saturday
14,1414833.2945320872,9825.231212028393, 1,10,9825.231212028393, 1,10
3,13, 1,13, 0,Sunday
14,1414833.2945320872,9825.231212028393, 1,10,9825.231212028393, 1,10
3,14, 1,14, 0,Monday
14,9105304.794636209,9825.231212028393, 1,10,171674.56586834037,10,10
3,15, 1,15, 0,Tuesday
14,9105304.794636209,9825.231212028393, 1,10,171674.56586834037,10,10
3,16, 1,16, 0,Wednesday
14,9105304.794636209,9825.231212028393, 1,10,171674.56586834037,10,10
3,17, 1,17, 0,Thursday
14,9105304.794636209,9825.231212028393, 1,10,171674.56586834037,10,10
3,18, 1,18, 0,Friday
14,9105304.794636209,9825.231212028393, 1,10,171674.56586834037,10,10
3,19, 1,19, 0,Saturday
14,1414833.2945320872,9825.231212028393, 1,10,9825.231212028393, 1,10
3,20, 1,20, 0,Sunday
14,1414833.2945320872,9825.231212028393, 1,10,9825.231212028393, 1,10
3,21, 1,21, 0,Monday
14,9105304.794636209,9825.231212028393, 1,10,171674.56586834037,10,10
3,22, 1,22, 0,Tuesday
14,9105304.794636209,9825.231212028393, 1,10,171674.56586834037,10,10
3,23, 1,23, 0,Wednesday
14,9105304.794636209,9825.231212028393, 1,10,171674.56586834037,10,10
3,24, 1,24, 0,Thursday
14,9105304.794636209,9825.231212028393, 1,10,171674.56586834037,10,10
3,25, 1,25, 0,Friday
14,9105304.794636209,9825.231212028393, 1,10,171674.56586834037,10,10
3,26, 1,26, 0,Saturday
14,1414833.2945320872,9825.231212028393, 1,10,9825.231212028393, 1,10
3,27, 1,27, 0,Sunday
14,1414833.2945320872,9825.231212028393, 1,10,9825.231212028393, 1,10
3,28, 1,28, 0,Monday
14,9105304.794636209,9825.231212028393, 1,10,171674.56586834037,10,10
3,29, 1,29, 0,Tuesday
14,9105304.794636209,9825.231212028393, 1,10,171674.56586834037,10,10
3,30, 1,30, 0,Wednesday
14,9105304.794636209,9825.231212028393, 1,10,171674.56586834037,10,10
3,31, 1,31, 0,Thursday
14,9105304.794636209,9825.231212028393, 1,10,171674.56586834037,10,10
4,31, 1
7,3.6961357526881735,-11.1, 7, 7,60,11.4,26, 7,60
8,88.29760304659489,68.0, 1,10,60,100.0, 8,13,60
9,16.15176971326165,0.0, 1, 1,10,128.0,27,14,30
206,10.273955192924094,1.132490557030716, 7, 8,60,19.460452629494018,28,14,50
207,229.88288861832834,0.0, 1, 1,10,2509.639600974937,27,13,50
208,615718328.8753307,0.0, 1, 1,10,1505783.760584962,27,13,50
209,51.997689046611924,0.0, 1, 1,10,572.177931463038,30,14,50
210,60.77490158010423,0.0, 1, 1,10,643.7990536176321, 5,12,20
211,29.39422124791475,0.0, 1, 1,10,282.8730742121078,30,13,30
212,51.9973109022728,0.0, 1, 1,10,572.1737511798036,30,14,50
213,113.13211946268778,0.0, 1, 1,10,1392.8921649777362, 4,16,20
214,58.132243301762095,0.0, 1, 1,10,1028.0974161383067, 2,15,60
215,54.999876160925574,0.0, 1, 1,10,579.7392123317185,27,13,60
216,90.47095808518611,0.0, 1, 1,10,1479.689882922235,28,14,50
217,75.35069553319143,0.0, 1,11,10,380.1723924521519, 4,19,10
218,161.56972918120937,0.0, 1, 1,10,3091.8929300677737,30,14,60
219,242317414.13536257,0.0, 1, 1,10,887813.929753341,28,14,50
220,201819302.91609988,0.0, 1,11,10,228103.43547129113, 4,19,10
221,60.77490157789552,0.0, 1, 1,10,643.7990535937835, 5,12,20
222,116.75076915564071,0.0, 1, 1,10,1391.0513427045794,10,11,20
223,61.328322697554846,0.0, 1, 1,10,1208.6229756052749, 5,10,10
224,55.42244645808582,0.0, 1, 1,10,582.3681030950086,22,10,20
225,100.10828758522474,0.0, 1, 1,10,1590.7144616578055,20,11,10
226,78.96467865332578,0.0, 1, 9,60,383.33658593675057, 4,19,10
227,221.55207970529864,0.0, 1, 1,10,3577.538005938584, 5,12,10
228,268130037.46826595,0.0, 1, 1,10,954428.6769946833,20,11,10
229,211498995.30506802,0.0, 1, 9,60,230001.95156205035, 4,19,10
230,10.566021439604086,1.1327511257424796, 7, 8,60,19.8969642124692,28,14,50
231,10.566006209142392,1.1327511257424796, 7, 9,10,19.8969642124692,28,14,60
232,-0.0008505493159049274,-141.28910256687288,17, 9,60,115.71198734587807, 7,19,20
233,10.565863833820424,1.1327493944963678, 7, 8,60,19.896794552217674,28,14,50
234,10.565848605253683,1.1327493944963678, 7, 9,10,19.896794552217674,28,14,60
235,-0.0008575307001525477,-142.47083959769859,17, 9,60,116.66622063172089, 7,19,20
236,10.610761965020359,2.1720568408888035, 7, 9,10,17.73874980519825,24,15,60
237,5.072925808128574,-9.03439312183805, 7, 7,60,28.6083921388658,30,15,30
238,-26.433206112863314,-711.1127123440948, 7,11,50,332.5714362339781, 4,23,60
239,10.62108716834558,2.18911024770773, 7, 9,10,17.812631300163147,24,15,60
240,5.541950408259319,-9.006478139986205, 7, 7,60,32.250383709398264, 3,12,30
241,-24.37162269534804,-715.2157485647689, 7,11,50,336.84265170472287, 4,23,60
242,9.944801055655116,1.387524378942661, 7, 8,60,19.644087962708483,19,13,40
243,3.7225984489567585,3.7225984489567487, 1, 1,10,3.7225984489567487, 1, 1,10
244,-554.4981384439166,-1418.8603063368014,19,13,40,208.0925850208723, 7, 8,60
245,10.383289402553995,0.816823059062107, 7, 8,60,19.76983030019529,28,14,50
246,2.30858428002374,-11.774227166110085, 5, 1,60,11.72284973329339,20,13,30
247,-185.27880330365537,-621.7245187405573, 3,19,10,53.9345460794342,26, 7,60
248,9.405646839260582,-1.2138326682090224, 7, 8,40,21.097490242485833,28,14,50
249,4.137952988752648,-9.084861622796382, 7, 7,60,17.454780011444313,30,15,30
250,0.06966845878136199,0.0, 1, 1,10,1.0, 2,13,40
251,3.1350806451612905,0.0, 1, 1,10,45.0, 2,13,40
252,9.440920196322587,-1.190227797193188, 7, 8,40,19.810096993586512,19,13,50
253,4.374984858181815,-9.087208115495855, 7, 7,60,18.703169744769866, 3,12,20
254,0.0913978494623656,0.0, 1, 1,10,1.0, 2,11,60
255,4.112903225806452,0.0, 1, 1,10,45.0, 2,11,60
256,11.406203427907778,1.1206129056067697, 7, 8,60,20.000000000000007, 3,18,50
257,24.66357587108399,2.5419737256602137, 1, 1,10,91.92289096727382, 1,10, 2
258,-731.5204757765434,-3396.583242409202, 8,11,19,1177.0682461197616,13,13,13
259,0.0,0.0, 1, 1,10,0.0, 1, 1,10
260,0.0,0.0, 1, 1,10,0.0, 1, 1,10
261,731.0249783668804,0.0, 1, 1,10,3768.4235818840825,17,10,22
262,25.25877004676552,-2393.7936519655045, 7,19,13,4233.912462743154, 5,10, 4
263,0.0,0.0, 1, 1,10,0.0, 1, 1,10
264,0.0,0.0, 1, 1,10,0.0, 1, 1,10
265,0.0,0.0, 1, 1,10,0.0, 1, 1,10
266,0.0,0.0, 1, 1,10,0.0, 1, 1,10
267,0.0,0.0, 1, 1,10,0.0, 1, 1,10
268,0.0,0.0, 1, 1,10,0.0, 1, 1,10
269,0.0,0.0, 1, 1,10,0.0, 1, 1,10
270,0.0,0.0, 1, 1,10,0.0, 1, 1,10
271,0.0,0.0, 1, 1,10,0.0, 1, 1,10
272,0.0,0.0, 1, 1,10,0.0, 1, 1,10
322,1957977301.6451836,0.0, 1, 1,10,1824974.9749968876, 7,18,10
407,0.0,0.0, 1, 1,10,0.0, 1, 1,10
456,731.0249782128078,0.0, 1, 1,10,3768.4235818840825,17,10,22
457,0.0,0.0, 1, 1,10,0.0, 1, 1,10
752,1782387714.2663505,0.0, 1, 1,10,2505999.3865172663, 1,10,60
965,0.0,0.0, 1, 1,10,0.0, 1, 1,10
362,1957977301.6451867,0.0, 1, 1,10,2246081.215893585,31,10,30
411,0.0,0.0, 1, 1,10,0.0, 1, 1,10
3,32, 2, 1, 0,Friday
14,9105304.794636209,9825.231212028393, 1,10,171674.56586834037,10,10
3,33, 2, 2, 0,Saturday
14,1414833.2945320872,9825.231212028393, 1,10,9825.231212028393, 1,10
3,34, 2, 3, 0,Sunday
14,1414833.2945320872,9825.231212028393, 1,10,9825.231212028393, 1,10
3,35, 2, 4, 0,Monday
14,9105304.794636209,9825.231212028393, 1,10,171674.56586834037,10,10
3,36, 2, 5, 0,Tuesday
14,9105304.794636209,9825.231212028393, 1,10,171674.56586834037,10,10
3,37, 2, 6, 0,Wednesday
14,9105304.794636209,9825.231212028393, 1,10,171674.56586834037,10,10
3,38, 2, 7, 0,Thursday
14,9105304.794636209,9825.231212028393, 1,10,171674.56586834037,10,10
3,39, 2, 8, 0,Friday
14,9105304.794636209,9825.231212028393, 1,10,171674.56586834037,10,10
3,40, 2, 9, 0,Saturday
14,1414833.2945320872,9825.231212028393, 1,10,9825.231212028393, 1,10
3,41, 2,10, 0,Sunday
14,1414833.2945320872,9825.231212028393, 1,10,9825.231212028393, 1,10
3,42, 2,11, 0,Monday
14,9105304.794636209,9825.231212028393, 1,10,171674.56586834037,10,10
3,43, 2,12, 0,Tuesday
14,9105304.794636209,9825.231212028393, 1,10,171674.56586834037,10,10
3,44, 2,13, 0,Wednesday
14,9105304.794636209,9825.231212028393, 1,10,171674.56586834037,10,10
3,45, 2,14, 0,Thursday
14,9105304.794636209,9825.231212028393, 1,10,171674.56586834037,10,10
3,46, 2,15, 0,Friday
14,9105304.794636209,9825.231212028393, 1,10,171674.56586834037,10,10
3,47, 2,16, 0,Saturday
14,1414833.2945320872,9825.231212028393, 1,10,9825.231212028393, 1,10
3,48, 2,17, 0,Sunday
14,1414833.2945320872,9825.231212028393, 1,10,9825.231212028393, 1,10
3,49, 2,18, 0,Monday
14,9105304.794636209,9825.231212028393, 1,10,171674.56586834037,10,10
3,50, 2,19, 0,Tuesday
14,9105304.794636209,9825.231212028393, 1,10,171674.56586834037,10,10
3,51, 2,20, 0,Wednesday
14,9105304.794636209,9825.231212028393, 1,10,171674.56586834037,10,10
3,52, 2,21, 0,Thursday
14,9105304.794636209,9825.231212028393, 1,10,171674.56586834037,10,10
3,53, 2,22, 0,Friday
14,9105304.794636209,9825.231212028393, 1,10,171674.56586834037,10,10
3,54, 2,23, 0,Saturday
14,1414833.2945320872,9825.231212028393, 1,10,9825.231212028393, 1,10
3,55, 2,24, 0,Sunday
14,1414833.2945320872,9825.231212028393, 1,10,9825.231212028393, 1,10
3,56, 2,25, 0,Monday
14,9105304.794636209,9825.231212028393, 1,10,171674.56586834037,10,10
3,57, 2,26, 0,Tuesday
14,9105304.794636209,9825.231212028393, 1,10,171674.56586834037,10,10
3,58, 2,27, 0,Wednesday
14,9105304.794636209,9825.231212028393, 1,10,171674.56586834037,10,10
3,59, 2,28, 0,Thursday
14,9105304.794636209,9825.231212028393, 1,10,171674.56586834037,10,10
4,59, 2
7,4.140798611111114,-5.2,24, 8,60,12.3, 6,15,60
8,91.42261904761897,56.0,23,15,60,99.00000000000001, 5,15,20
9,31.374338624338616,0.0, 1, 1,10,196.0,27,13,30
206,11.159059445783868,3.8963243071792926, 4, 8,50,20.30296696239814, 8,14,30
207,299.3678541189219,0.0, 1, 1,10,2486.618612185717, 9,13,40
208,724230712.684496,0.0, 1, 1,10,1491971.1673114304, 9,13,40
209,69.53969868880003,0.0, 1, 1,10,719.0506559203161,24,15,20
210,84.45555259913552,0.0, 1, 1,10,852.7023247841771,24,11,30
211,57.17785788228625,0.0, 1, 1,10,433.22335618039784,24,13,30
212,69.53921037095928,0.0, 1, 1,10,719.0454783392057,24,15,20
213,152.12815864658828,0.0, 1, 1,10,1401.7336733804002,24,17,50
214,63.90049490661601,0.0, 1, 1,10,1042.2269655257867,24,17,50
215,88.2276637399723,0.0, 1, 1,10,660.0188171002725,14,14,30
216,128.90219870573088,0.0, 1, 1,10,1540.9733087381815,24,17,50
217,67.80529939589857,0.0, 1,11,10,342.0436869237326, 4,18,30
218,212.76297089909235,0.0, 1, 1,10,3834.277270717282,24,15,30
219,311840199.1089045,0.0, 1, 1,10,924583.9852429088,24,17,50
220,164034580.29855785,0.0, 1,11,10,205226.21215423956, 4,18,30
221,84.45555259613347,0.0, 1, 1,10,852.7023247529625,24,11,30
222,147.23969547233378,0.0, 1, 1,10,1376.2541759795345,28, 8,60
223,61.09981212279903,0.0, 1, 1,10,1103.9704538727697,13, 9,10
224,86.13988334953463,0.0, 1, 1,10,727.04200665724,14,12,40
225,131.8063878628692,0.0, 1, 1,10,1596.320723899537,28, 8,60
226,72.7520563072162,0.0, 1, 9,30,344.9008023407482, 4,18,30
227,324.93764372443377,0.0, 1, 1,10,4647.978526913408,24,11,30
228,318866013.51785296,0.0, 1, 1,10,957792.4343397222,28, 8,60
229,176001774.6184174,0.0, 1, 9,30,206940.48140444892, 4,18,30
230,11.409893299783754,3.894021369896471, 4, 8,60,20.65336283751478, 8,14,30
231,11.409851588073,3.894021369896471, 4, 9,10,20.65336283751478, 8,14,40
232,-0.0023294019423668842,-151.0464791431588,18, 9,20,105.8095119659527,14,15,40
233,11.409766731795662,3.894022964156636, 4, 8,60,20.653275713459113, 8,14,30
234,11.409725017518939,3.894022964156636, 4, 9,10,20.653275713459113, 8,14,40
235,-0.002348958606298762,-152.29913597541005,18, 9,20,106.70060485411385,14,15,40
236,11.432940591688993,4.544602009315277, 4, 8,60,18.654407796276615, 8,14,30
237,6.778222751285044,-5.1626505395346065,24, 8,40,47.1366938739055,15,15,50
238,-26.321955392017223,-645.2974491231448,25,10,50,283.1172305065161,13,24,20
239,11.446772481755833,4.552517449918959, 4, 8,60,18.67473339523923, 8,14,30
240,7.622583869907207,-5.1318053608673315,24, 8,40,41.29986506776241,15,13,20
241,-23.5510095796642,-643.6725380978606,25,10,50,287.36892030775437,13,24,20
242,10.912922991870014,4.060306411438159, 4, 8,60,20.331276147358476, 8,14,30
243,5.627020583359233,5.627020583359149, 1, 1,10,5.627020583359149, 1, 1,10
244,-471.0587601824751,-1310.3852209286467, 8,14,30,139.61938347502073, 4, 8,60
245,11.246813750923192,3.7099863276917766, 4, 8,40,20.633919138718735, 8,14,30
246,3.790654361918923,-12.643408728604495,10, 4,60,28.29977242963727,15,13,60
247,-171.0859118534766,-589.7165983030123, 1,19,10,204.1870735879931,15,13,60
248,10.29183056045097,1.9146740752626101,24, 8,40,21.808125804601445, 8,14,40
249,5.0476786242418825,-5.695954281877732,24, 8,60,30.857419662451832,15,15,60
250,0.08680555555555555,0.0, 1, 1,10,1.0, 1,12,40
251,3.90625,0.0, 1, 1,10,45.0, 1,12,40
252,10.33544079475642,1.917693177810861,24, 8,40,21.262985618447715, 8,13,40
253,5.504094515592051,-5.642710422982873,24, 8,50,25.540900189225738,15,13,30
254,0.11755952380952381,0.0, 1, 1,10,1.0, 1, 9,60
255,5.290178571428571,0.0, 1, 1,10,45.0, 1, 9,60
256,12.049708380050523,3.862466242937814, 4, 8,60,20.27229903697884, 8,14,50
257,23.839168337714145,2.5419737256602137, 1, 1,10,91.92289096727382, 1,10, 1
258,-551.9272074604654,-3259.199660101799, 4,11,19,1174.6504606858437,18, 9,11
259,0.0,0.0, 1, 1,10,0.0, 1, 1,10
260,0.0,0.0, 1, 1,10,0.0, 1, 1,10
261,549.0299525940627,0.0, 1, 1,10,3767.4318914485566, 1,10, 1
262,22.950685246087787,-2056.2305712103293, 4,19,13,4601.208376269353,15, 9,13
263,0.0,0.0, 1, 1,10,0.0, 1, 1,10
264,0.0,0.0, 1, 1,10,0.0, 1, 1,10
265,0.0,0.0, 1, 1,10,0.0, 1, 1,10
266,0.0,0.0, 1, 1,10,0.0, 1, 1,10
267,0.0,0.0, 1, 1,10,0.0, 1, 1,10
268,0.0,0.0, 1, 1,10,0.0, 1, 1,10
269,0.0,0.0, 1, 1,10,0.0, 1, 1,10
270,0.0,0.0, 1, 1,10,0.0, 1, 1,10
271,0.0,0.0, 1, 1,10,0.0, 1, 1,10
272,0.0,0.0, 1, 1,10,0.0, 1, 1,10
322,1328213261.315556,0.0, 1, 1,10,1670104.1016910453, 4,11,40
407,0.0,0.0, 1, 1,10,0.0, 1, 1,10
456,549.0299525940627,0.0, 1, 1,10,3767.4318914485566, 1,10, 1
457,0.0,0.0, 1, 1,10,0.0, 1, 1,10
752,1611378724.1967583,0.0, 1, 1,10,2505999.3865172663, 1,22,10
965,0.0,0.0, 1, 1,10,0.0, 1, 1,10
362,1328213261.315554,99999999999999.0, 1, 1,10,2247711.109877024, 4,10,60
411,0.0,99999999999999.0, 1, 1,10,-99999999999999.0, 1, 1,10
3,60, 3, 1, 0,Friday
14,9105304.794636209,9825.231212028393, 1,10,171674.56586834037,10,10
3,61, 3, 2, 0,Saturday
14,1414833.2945320872,9825.231212028393, 1,10,9825.231212028393, 1,10
3,62, 3, 3, 0,Sunday
14,1414833.2945320872,9825.231212028393, 1,10,9825.231212028393, 1,10
3,63, 3, 4, 0,Monday
14,9105304.794636209,9825.231212028393, 1,10,171674.56586834037,10,10
3,64, 3, 5, 0,Tuesday
14,9105304.794636209,9825.231212028393, 1,10,171674.56586834037,10,10
3,65, 3, 6, 0,Wednesday
14,9105304.794636209,9825.231212028393, 1,10,171674.56586834037,10,10
3,66, 3, 7, 0,Thursday
14,9105304.794636209,9825.231212028393, 1,10,171674.56586834037,10,10
3,67, 3, 8, 0,Friday
14,9105304.794636209,9825.231212028393, 1,10,171674.56586834037,10,10
3,68, 3, 9, 0,Saturday
14,1414833.2945320872,9825.231212028393, 1,10,9825.231212028393, 1,10
3,69, 3,10, 0,Sunday
14,1414833.2945320872,9825.231212028393, 1,10,9825.231212028393, 1,10
3,70, 3,11, 0,Monday
14,9105304.794636209,9825.231212028393, 1,10,171674.56586834037,10,10
3,71, 3,12, 0,Tuesday
14,9105304.794636209,9825.231212028393, 1,10,171674.56586834037,10,10
3,72, 3,13, 0,Wednesday
14,9105304.794636209,9825.231212028393, 1,10,171674.56586834037,10,10
3,73, 3,14, 0,Thursday
14,9105304.794636209,9825.231212028393, 1,10,171674.56586834037,10,10
3,74, 3,15, 0,Friday
14,9105304.794636209,9825.231212028393, 1,10,171674.56586834037,10,10
3,75, 3,16, 0,Saturday
14,1414833.2945320872,9825.231212028393, 1,10,9825.231212028393, 1,10
3,76, 3,17, 0,Sunday
14,1414833.2945320872,9825.231212028393, 1,10,9825.231212028393, 1,10
3,77, 3,18, 0,Monday
14,9105304.794636209,9825.231212028393, 1,10,171674.56586834037,10,10
3,78, 3,19, 0,Tuesday
14,9105304.794636209,9825.231212028393, 1,10,171674.56586834037,10,10
3,79, 3,20, 0,Wednesday
14,9105304.794636209,9825.231212028393, 1,10,171674.56586834037,10,10
3,80, 3,21, 0,Thursday
14,9105304.794636209,9825.231212028393, 1,10,171674.56586834037,10,10
3,81, 3,22, 0,Friday
14,9105304.794636209,9825.231212028393, 1,10,171674.56586834037,10,10
3,82, 3,23, 0,Saturday
14,1414833.2945320872,9825.231212028393, 1,10,9825.231212028393, 1,10
3,83, 3,24, 0,Sunday
14,1414833.2945320872,9825.231212028393, 1,10,9825.231212028393, 1,10
3,84, 3,25, 0,Monday
14,9105304.794636209,9825.231212028393, 1,10,171674.56586834037,10,10
3,85, 3,26, 0,Tuesday
14,9105304.794636209,9825.231212028393, 1,10,171674.56586834037,10,10
3,86, 3,27, 0,Wednesday
14,9105304.794636209,9825.231212028393, 1,10,171674.56586834037,10,10
3,87, 3,28, 0,Thursday
14,9105304.794636209,9825.231212028393, 1,10,171674.56586834037,10,10
3,88, 3,29, 0,Friday
14,9105304.794636209,9825.231212028393, 1,10,171674.56586834037,10,10
3,89, 3,30, 0,Saturday
14,1414833.2945320872,9825.231212028393, 1,10,9825.231212028393, 1,10
3,90, 3,31, 0,Sunday
14,1414833.2945320872,9825.231212028393, 1,10,9825.231212028393, 1,10
4,90, 3
7,5.679121863799289,-3.6,24, 7,60,12.5,16,16,60
8,82.00156810035845,53.0,27,16,60,100.0, 2, 4,60
9,50.763440860215034,0.0, 1, 1,10,268.0,21,12,30
206,12.381422095076587,4.720712512874152,24, 7,30,20.981325305529772,16,13,40
207,382.78185078141024,0.0, 1, 1,10,2448.297375778149, 9,13,60
208,1025242909.1329292,0.0, 1, 1,10,1468978.4254668895, 9,13,60
209,96.15734420855472,0.0, 1, 1,10,739.6788411916027,15,15,30
210,120.75862245740629,0.0, 1, 1,10,829.3990096314969,20,11,30
211,104.19846364849045,0.0, 1, 1,10,590.4864200139441,30,12,30
212,96.15669007366681,0.0, 1, 1,10,739.6735841068512,15,15,30
213,183.0285988709046,0.0, 1, 1,10,1371.8462268166597, 4,18,10
214,57.08897514059414,0.0, 1, 1,10,1005.5743801902506, 4,18,10
215,125.93962373031049,0.0, 1, 1,10,817.9038048442876,21,13,40
216,158.7427870064302,0.0, 1, 1,10,1590.9876288773426, 3,16,50
217,53.933065026912814,0.0, 1, 8,50,278.65892375223456, 5,19,20
218,329.4296783430473,0.0, 1, 1,10,3879.769359446783,15,15,30
219,425176680.7180227,0.0, 1, 1,10,954592.5773264056, 3,16,50
220,144454321.36808324,0.0, 1, 8,50,167195.35425134073, 5,19,20
221,120.75862245319063,0.0, 1, 1,10,829.3990096016348,20,11,30
222,199.75325191050567,0.0, 1, 1,10,1349.4844764941406,19, 8,20
223,71.04861829038066,0.0, 1, 1,10,1049.806851322567,14, 8,20
224,128.70463362012475,0.0, 1, 1,10,890.0844320143034,21,13,20
225,190.61297940529738,0.0, 1, 1,10,1581.405331615056, 3, 9,20
226,59.48859546590418,0.0, 1, 8,50,280.60604885712746, 5,19,20
227,476.23945803182477,0.0, 1, 1,10,4409.551284947736,20,11,30
228,510537804.03914857,0.0, 1, 1,10,948843.1989690335, 3, 9,20
229,159334254.09587768,0.0, 1, 8,50,168363.62931427648, 5,19,20
230,12.601162859298485,4.713972981403802,24, 7,30,21.360524772314516,16,13,40
231,12.6009143003862,4.713972981403802,24, 7,40,21.360524772314516,16,13,50