Program Version,EnergyPlus, Version 22.2.0-c249759bad, YMD=2025.06.25 17:34
1,5,Environment Title[],Latitude[deg],Longitude[deg],Time Zone[],Elevation[m]
2,8,Day of Simulation[],Month[],Day of Month[],DST Indicator[1=yes 0=no],Hour[],StartMinute[],EndMinute[],DayType
3,5,Cumulative Day of Simulation[],Month[],Day of Month[],DST Indicator[1=yes 0=no],DayType  ! When Daily Report Variables Requested
4,2,Cumulative Days of Simulation[],Month[]  ! When Monthly Report Variables Requested
5,1,Cumulative Days of Simulation[] ! When Run Period Report Variables Requested
6,1,Calendar Year of Simulation[] ! When Annual Report Variables Requested
7,9,Environment,Site Outdoor Air Drybulb Temperature [C] !Monthly [Value,Min,Day,Hour,Minute,Max,Day,Hour,Minute]
8,9,Environment,Site Outdoor Air Relative Humidity [%] !Monthly [Value,Min,Day,Hour,Minute,Max,Day,Hour,Minute]
9,9,Environment,Site Diffuse Solar Radiation Rate per Area [W/m2] !Monthly [Value,Min,Day,Hour,Minute,Max,Day,Hour,Minute]
782,9,ZONE1_FRONTPERIMETER,Zone Mean Radiant Temperature [C] !Monthly [Value,Min,Day,Hour,Minute,Max,Day,Hour,Minute]
783,9,ZONE1_RIGHTPERIMETER,Zone Mean Radiant Temperature [C] !Monthly [Value,Min,Day,Hour,Minute,Max,Day,Hour,Minute]
784,9,ZONE1_REARPERIMETER,Zone Mean Radiant Temperature [C] !Monthly [Value,Min,Day,Hour,Minute,Max,Day,Hour,Minute]
785,9,ZONE1_LEFTPERIMETER,Zone Mean Radiant Temperature [C] !Monthly [Value,Min,Day,Hour,Minute,Max,Day,Hour,Minute]
786,9,ZONE1_CORE,Zone Mean Radiant Temperature [C] !Monthly [Value,Min,Day,Hour,Minute,Max,Day,Hour,Minute]
787,9,ZONE2_FRONTPERIMETER,Zone Mean Radiant Temperature [C] !Monthly [Value,Min,Day,Hour,Minute,Max,Day,Hour,Minute]
788,9,ZONE2_RIGHTPERIMETER,Zone Mean Radiant Temperature [C] !Monthly [Value,Min,Day,Hour,Minute,Max,Day,Hour,Minute]
789,9,ZONE2_REARPERIMETER,Zone Mean Radiant Temperature [C] !Monthly [Value,Min,Day,Hour,Minute,Max,Day,Hour,Minute]
790,9,ZONE2_LEFTPERIMETER,Zone Mean Radiant Temperature [C] !Monthly [Value,Min,Day,Hour,Minute,Max,Day,Hour,Minute]
791,9,ZONE2_CORE,Zone Mean Radiant Temperature [C] !Monthly [Value,Min,Day,Hour,Minute,Max,Day,Hour,Minute]
792,9,ZONE1_FRONTPERIMETER,Zone Windows Total Transmitted Solar Radiation Rate [W] !Monthly [Value,Min,Day,Hour,Minute,Max,Day,Hour,Minute]
793,9,ZONE1_FRONTPERIMETER,Zone Windows Total Transmitted Solar Radiation Energy [J] !Monthly [Value,Min,Day,Hour,Minute,Max,Day,Hour,Minute]
794,9,ZONE1_RIGHTPERIMETER,Zone Windows Total Transmitted Solar Radiation Rate [W] !Monthly [Value,Min,Day,Hour,Minute,Max,Day,Hour,Minute]
795,9,ZONE1_RIGHTPERIMETER,Zone Windows Total Transmitted Solar Radiation Energy [J] !Monthly [Value,Min,Day,Hour,Minute,Max,Day,Hour,Minute]
796,9,ZONE1_REARPERIMETER,Zone Windows Total Transmitted Solar Radiation Rate [W] !Monthly [Value,Min,Day,Hour,Minute,Max,Day,Hour,Minute]
797,9,ZONE1_REARPERIMETER,Zone Windows Total Transmitted Solar Radiation Energy [J] !Monthly [Value,Min,Day,Hour,Minute,Max,Day,Hour,Minute]
798,9,ZONE1_LEFTPERIMETER,Zone Windows Total Transmitted Solar Radiation Rate [W] !Monthly [Value,Min,Day,Hour,Minute,Max,Day,Hour,Minute]
799,9,ZONE1_LEFTPERIMETER,Zone Windows Total Transmitted Solar Radiation Energy [J] !Monthly [Value,Min,Day,Hour,Minute,Max,Day,Hour,Minute]
800,9,ZONE1_CORE,Zone Windows Total Transmitted Solar Radiation Rate [W] !Monthly [Value,Min,Day,Hour,Minute,Max,Day,Hour,Minute]
801,9,ZONE1_CORE,Zone Windows Total Transmitted Solar Radiation Energy [J] !Monthly [Value,Min,Day,Hour,Minute,Max,Day,Hour,Minute]
802,9,ZONE2_FRONTPERIMETER,Zone Windows Total Transmitted Solar Radiation Rate [W] !Monthly [Value,Min,Day,Hour,Minute,Max,Day,Hour,Minute]
803,9,ZONE2_FRONTPERIMETER,Zone Windows Total Transmitted Solar Radiation Energy [J] !Monthly [Value,Min,Day,Hour,Minute,Max,Day,Hour,Minute]
804,9,ZONE2_RIGHTPERIMETER,Zone Windows Total Transmitted Solar Radiation Rate [W] !Monthly [Value,Min,Day,Hour,Minute,Max,Day,Hour,Minute]
805,9,ZONE2_RIGHTPERIMETER,Zone Windows Total Transmitted Solar Radiation Energy [J] !Monthly [Value,Min,Day,Hour,Minute,Max,Day,Hour,Minute]
806,9,ZONE2_REARPERIMETER,Zone Windows Total Transmitted Solar Radiation Rate [W] !Monthly [Value,Min,Day,Hour,Minute,Max,Day,Hour,Minute]
807,9,ZONE2_REARPERIMETER,Zone Windows Total Transmitted Solar Radiation Energy [J] !Monthly [Value,Min,Day,Hour,Minute,Max,Day,Hour,Minute]
808,9,ZONE2_LEFTPERIMETER,Zone Windows Total Transmitted Solar Radiation Rate [W] !Monthly [Value,Min,Day,Hour,Minute,Max,Day,Hour,Minute]
809,9,ZONE2_LEFTPERIMETER,Zone Windows Total Transmitted Solar Radiation Energy [J] !Monthly [Value,Min,Day,Hour,Minute,Max,Day,Hour,Minute]
810,9,ZONE2_CORE,Zone Windows Total Transmitted Solar Radiation Rate [W] !Monthly [Value,Min,Day,Hour,Minute,Max,Day,Hour,Minute]
811,9,ZONE2_CORE,Zone Windows Total Transmitted Solar Radiation Energy [J] !Monthly [Value,Min,Day,Hour,Minute,Max,Day,Hour,Minute]
812,9,ZONE1_FRONTPERIMETER_WALL_0,Surface Outside Face Incident Solar Radiation Rate per Area [W/m2] !Monthly [Value,Min,Day,Hour,Minute,Max,Day,Hour,Minute]
813,9,ZONE1_FRONTPERIMETER_WALL_0 WINDOW,Surface Outside Face Incident Solar Radiation Rate per Area [W/m2] !Monthly [Value,Min,Day,Hour,Minute,Max,Day,Hour,Minute]
814,9,ZONE1_FRONTPERIMETER_WALL_0 WINDOW,Surface Window Transmitted Solar Radiation Rate [W] !Monthly [Value,Min,Day,Hour,Minute,Max,Day,Hour,Minute]
815,9,ZONE1_FRONTPERIMETER_WALL_0 WINDOW,Surface Window Transmitted Beam Solar Radiation Rate [W] !Monthly [Value,Min,Day,Hour,Minute,Max,Day,Hour,Minute]
816,9,ZONE1_FRONTPERIMETER_WALL_0 WINDOW,Surface Window Transmitted Diffuse Solar Radiation Rate [W] !Monthly [Value,Min,Day,Hour,Minute,Max,Day,Hour,Minute]
817,9,ZONE1_FRONTPERIMETER_WALL_0 WINDOW,Surface Window Heat Gain Rate [W] !Monthly [Value,Min,Day,Hour,Minute,Max,Day,Hour,Minute]
818,9,ZONE1_FRONTPERIMETER_WALL_0 WINDOW,Surface Window Heat Loss Rate [W] !Monthly [Value,Min,Day,Hour,Minute,Max,Day,Hour,Minute]
819,9,ZONE1_FRONTPERIMETER_WALL_0 WINDOW,Surface Window Shading Device Absorbed Solar Radiation Rate [W] !Monthly [Value,Min,Day,Hour,Minute,Max,Day,Hour,Minute]
820,9,ZONE1_FRONTPERIMETER_WALL_0 WINDOW,Surface Window Heat Gain Energy [J] !Monthly [Value,Min,Day,Hour,Minute,Max,Day,Hour,Minute]
821,9,ZONE1_FRONTPERIMETER_WALL_0 WINDOW,Surface Window Heat Loss Energy [J] !Monthly [Value,Min,Day,Hour,Minute,Max,Day,Hour,Minute]
822,9,ZONE1_REARPERIMETER_WALL_0,Surface Outside Face Incident Solar Radiation Rate per Area [W/m2] !Monthly [Value,Min,Day,Hour,Minute,Max,Day,Hour,Minute]
823,9,ZONE1_REARPERIMETER_WALL_0 WINDOW,Surface Outside Face Incident Solar Radiation Rate per Area [W/m2] !Monthly [Value,Min,Day,Hour,Minute,Max,Day,Hour,Minute]
824,9,ZONE1_REARPERIMETER_WALL_0 WINDOW,Surface Window Transmitted Solar Radiation Rate [W] !Monthly [Value,Min,Day,Hour,Minute,Max,Day,Hour,Minute]
825,9,ZONE1_REARPERIMETER_WALL_0 WINDOW,Surface Window Transmitted Beam Solar Radiation Rate [W] !Monthly [Value,Min,Day,Hour,Minute,Max,Day,Hour,Minute]
826,9,ZONE1_REARPERIMETER_WALL_0 WINDOW,Surface Window Transmitted Diffuse Solar Radiation Rate [W] !Monthly [Value,Min,Day,Hour,Minute,Max,Day,Hour,Minute]
827,9,ZONE1_REARPERIMETER_WALL_0 WINDOW,Surface Window Heat Gain Rate [W] !Monthly [Value,Min,Day,Hour,Minute,Max,Day,Hour,Minute]
828,9,ZONE1_REARPERIMETER_WALL_0 WINDOW,Surface Window Heat Loss Rate [W] !Monthly [Value,Min,Day,Hour,Minute,Max,Day,Hour,Minute]
829,9,ZONE1_REARPERIMETER_WALL_0 WINDOW,Surface Window Shading Device Absorbed Solar Radiation Rate [W] !Monthly [Value,Min,Day,Hour,Minute,Max,Day,Hour,Minute]
830,9,ZONE1_REARPERIMETER_WALL_0 WINDOW,Surface Window Heat Gain Energy [J] !Monthly [Value,Min,Day,Hour,Minute,Max,Day,Hour,Minute]
831,9,ZONE1_REARPERIMETER_WALL_0 WINDOW,Surface Window Heat Loss Energy [J] !Monthly [Value,Min,Day,Hour,Minute,Max,Day,Hour,Minute]
832,9,ZONE1_LEFTPERIMETER_WALL_0,Surface Outside Face Incident Solar Radiation Rate per Area [W/m2] !Monthly [Value,Min,Day,Hour,Minute,Max,Day,Hour,Minute]
833,9,ZONE1_LEFTPERIMETER_WALL_0 WINDOW,Surface Outside Face Incident Solar Radiation Rate per Area [W/m2] !Monthly [Value,Min,Day,Hour,Minute,Max,Day,Hour,Minute]
834,9,ZONE1_LEFTPERIMETER_WALL_0 WINDOW,Surface Window Transmitted Solar Radiation Rate [W] !Monthly [Value,Min,Day,Hour,Minute,Max,Day,Hour,Minute]
835,9,ZONE1_LEFTPERIMETER_WALL_0 WINDOW,Surface Window Transmitted Beam Solar Radiation Rate [W] !Monthly [Value,Min,Day,Hour,Minute,Max,Day,Hour,Minute]
836,9,ZONE1_LEFTPERIMETER_WALL_0 WINDOW,Surface Window Transmitted Diffuse Solar Radiation Rate [W] !Monthly [Value,Min,Day,Hour,Minute,Max,Day,Hour,Minute]
837,9,ZONE1_LEFTPERIMETER_WALL_0 WINDOW,Surface Window Heat Gain Rate [W] !Monthly [Value,Min,Day,Hour,Minute,Max,Day,Hour,Minute]
838,9,ZONE1_LEFTPERIMETER_WALL_0 WINDOW,Surface Window Heat Loss Rate [W] !Monthly [Value,Min,Day,Hour,Minute,Max,Day,Hour,Minute]
839,9,ZONE1_LEFTPERIMETER_WALL_0 WINDOW,Surface Window Shading Device Absorbed Solar Radiation Rate [W] !Monthly [Value,Min,Day,Hour,Minute,Max,Day,Hour,Minute]
840,9,ZONE1_LEFTPERIMETER_WALL_0 WINDOW,Surface Window Heat Gain Energy [J] !Monthly [Value,Min,Day,Hour,Minute,Max,Day,Hour,Minute]
841,9,ZONE1_LEFTPERIMETER_WALL_0 WINDOW,Surface Window Heat Loss Energy [J] !Monthly [Value,Min,Day,Hour,Minute,Max,Day,Hour,Minute]
842,9,ZONE2_FRONTPERIMETER_WALL_0,Surface Outside Face Incident Solar Radiation Rate per Area [W/m2] !Monthly [Value,Min,Day,Hour,Minute,Max,Day,Hour,Minute]
843,9,ZONE2_FRONTPERIMETER_ROOF,Surface Outside Face Incident Solar Radiation Rate per Area [W/m2] !Monthly [Value,Min,Day,Hour,Minute,Max,Day,Hour,Minute]
844,9,ZONE2_FRONTPERIMETER_WALL_0 WINDOW,Surface Outside Face Incident Solar Radiation Rate per Area [W/m2] !Monthly [Value,Min,Day,Hour,Minute,Max,Day,Hour,Minute]
845,9,ZONE2_FRONTPERIMETER_WALL_0 WINDOW,Surface Window Transmitted Solar Radiation Rate [W] !Monthly [Value,Min,Day,Hour,Minute,Max,Day,Hour,Minute]
846,9,ZONE2_FRONTPERIMETER_WALL_0 WINDOW,Surface Window Transmitted Beam Solar Radiation Rate [W] !Monthly [Value,Min,Day,Hour,Minute,Max,Day,Hour,Minute]
847,9,ZONE2_FRONTPERIMETER_WALL_0 WINDOW,Surface Window Transmitted Diffuse Solar Radiation Rate [W] !Monthly [Value,Min,Day,Hour,Minute,Max,Day,Hour,Minute]
848,9,ZONE2_FRONTPERIMETER_WALL_0 WINDOW,Surface Window Heat Gain Rate [W] !Monthly [Value,Min,Day,Hour,Minute,Max,Day,Hour,Minute]
849,9,ZONE2_FRONTPERIMETER_WALL_0 WINDOW,Surface Window Heat Loss Rate [W] !Monthly [Value,Min,Day,Hour,Minute,Max,Day,Hour,Minute]
850,9,ZONE2_FRONTPERIMETER_WALL_0 WINDOW,Surface Window Shading Device Absorbed Solar Radiation Rate [W] !Monthly [Value,Min,Day,Hour,Minute,Max,Day,Hour,Minute]
851,9,ZONE2_FRONTPERIMETER_WALL_0 WINDOW,Surface Window Heat Gain Energy [J] !Monthly [Value,Min,Day,Hour,Minute,Max,Day,Hour,Minute]
852,9,ZONE2_FRONTPERIMETER_WALL_0 WINDOW,Surface Window Heat Loss Energy [J] !Monthly [Value,Min,Day,Hour,Minute,Max,Day,Hour,Minute]
853,9,ZONE2_RIGHTPERIMETER_ROOF,Surface Outside Face Incident Solar Radiation Rate per Area [W/m2] !Monthly [Value,Min,Day,Hour,Minute,Max,Day,Hour,Minute]
854,9,ZONE2_REARPERIMETER_WALL_0,Surface Outside Face Incident Solar Radiation Rate per Area [W/m2] !Monthly [Value,Min,Day,Hour,Minute,Max,Day,Hour,Minute]
855,9,ZONE2_REARPERIMETER_ROOF,Surface Outside Face Incident Solar Radiation Rate per Area [W/m2] !Monthly [Value,Min,Day,Hour,Minute,Max,Day,Hour,Minute]
856,9,ZONE2_REARPERIMETER_WALL_0 WINDOW,Surface Outside Face Incident Solar Radiation Rate per Area [W/m2] !Monthly [Value,Min,Day,Hour,Minute,Max,Day,Hour,Minute]
857,9,ZONE2_REARPERIMETER_WALL_0 WINDOW,Surface Window Transmitted Solar Radiation Rate [W] !Monthly [Value,Min,Day,Hour,Minute,Max,Day,Hour,Minute]
858,9,ZONE2_REARPERIMETER_WALL_0 WINDOW,Surface Window Transmitted Beam Solar Radiation Rate [W] !Monthly [Value,Min,Day,Hour,Minute,Max,Day,Hour,Minute]
859,9,ZONE2_REARPERIMETER_WALL_0 WINDOW,Surface Window Transmitted Diffuse Solar Radiation Rate [W] !Monthly [Value,Min,Day,Hour,Minute,Max,Day,Hour,Minute]
860,9,ZONE2_REARPERIMETER_WALL_0 WINDOW,Surface Window Heat Gain Rate [W] !Monthly [Value,Min,Day,Hour,Minute,Max,Day,Hour,Minute]
861,9,ZONE2_REARPERIMETER_WALL_0 WINDOW,Surface Window Heat Loss Rate [W] !Monthly [Value,Min,Day,Hour,Minute,Max,Day,Hour,Minute]
862,9,ZONE2_REARPERIMETER_WALL_0 WINDOW,Surface Window Shading Device Absorbed Solar Radiation Rate [W] !Monthly [Value,Min,Day,Hour,Minute,Max,Day,Hour,Minute]
863,9,ZONE2_REARPERIMETER_WALL_0 WINDOW,Surface Window Heat Gain Energy [J] !Monthly [Value,Min,Day,Hour,Minute,Max,Day,Hour,Minute]
864,9,ZONE2_REARPERIMETER_WALL_0 WINDOW,Surface Window Heat Loss Energy [J] !Monthly [Value,Min,Day,Hour,Minute,Max,Day,Hour,Minute]
865,9,ZONE2_LEFTPERIMETER_WALL_0,Surface Outside Face Incident Solar Radiation Rate per Area [W/m2] !Monthly [Value,Min,Day,Hour,Minute,Max,Day,Hour,Minute]
866,9,ZONE2_LEFTPERIMETER_ROOF,Surface Outside Face Incident Solar Radiation Rate per Area [W/m2] !Monthly [Value,Min,Day,Hour,Minute,Max,Day,Hour,Minute]
867,9,ZONE2_LEFTPERIMETER_WALL_0 WINDOW,Surface Outside Face Incident Solar Radiation Rate per Area [W/m2] !Monthly [Value,Min,Day,Hour,Minute,Max,Day,Hour,Minute]
868,9,ZONE2_LEFTPERIMETER_WALL_0 WINDOW,Surface Window Transmitted Solar Radiation Rate [W] !Monthly [Value,Min,Day,Hour,Minute,Max,Day,Hour,Minute]
869,9,ZONE2_LEFTPERIMETER_WALL_0 WINDOW,Surface Window Transmitted Beam Solar Radiation Rate [W] !Monthly [Value,Min,Day,Hour,Minute,Max,Day,Hour,Minute]
870,9,ZONE2_LEFTPERIMETER_WALL_0 WINDOW,Surface Window Transmitted Diffuse Solar Radiation Rate [W] !Monthly [Value,Min,Day,Hour,Minute,Max,Day,Hour,Minute]
871,9,ZONE2_LEFTPERIMETER_WALL_0 WINDOW,Surface Window Heat Gain Rate [W] !Monthly [Value,Min,Day,Hour,Minute,Max,Day,Hour,Minute]
872,9,ZONE2_LEFTPERIMETER_WALL_0 WINDOW,Surface Window Heat Loss Rate [W] !Monthly [Value,Min,Day,Hour,Minute,Max,Day,Hour,Minute]
873,9,ZONE2_LEFTPERIMETER_WALL_0 WINDOW,Surface Window Shading Device Absorbed Solar Radiation Rate [W] !Monthly [Value,Min,Day,Hour,Minute,Max,Day,Hour,Minute]
874,9,ZONE2_LEFTPERIMETER_WALL_0 WINDOW,Surface Window Heat Gain Energy [J] !Monthly [Value,Min,Day,Hour,Minute,Max,Day,Hour,Minute]
875,9,ZONE2_LEFTPERIMETER_WALL_0 WINDOW,Surface Window Heat Loss Energy [J] !Monthly [Value,Min,Day,Hour,Minute,Max,Day,Hour,Minute]
876,9,ZONE2_CORE_ROOF,Surface Outside Face Incident Solar Radiation Rate per Area [W/m2] !Monthly [Value,Min,Day,Hour,Minute,Max,Day,Hour,Minute]
877,9,ZONE1_FRONTPERIMETER_WALL_0,Surface Inside Face Temperature [C] !Monthly [Value,Min,Day,Hour,Minute,Max,Day,Hour,Minute]
878,9,ZONE1_FRONTPERIMETER_WALL_0,Surface Outside Face Temperature [C] !Monthly [Value,Min,Day,Hour,Minute,Max,Day,Hour,Minute]
879,9,ZONE1_FRONTPERIMETER_WALL_0,Surface Inside Face Conduction Heat Transfer Rate [W] !Monthly [Value,Min,Day,Hour,Minute,Max,Day,Hour,Minute]
880,9,ZONE1_FRONTPERIMETER_WALL_1,Surface Inside Face Temperature [C] !Monthly [Value,Min,Day,Hour,Minute,Max,Day,Hour,Minute]
881,9,ZONE1_FRONTPERIMETER_WALL_1,Surface Outside Face Temperature [C] !Monthly [Value,Min,Day,Hour,Minute,Max,Day,Hour,Minute]
882,9,ZONE1_FRONTPERIMETER_WALL_1,Surface Inside Face Conduction Heat Transfer Rate [W] !Monthly [Value,Min,Day,Hour,Minute,Max,Day,Hour,Minute]
883,9,ZONE1_FRONTPERIMETER_WALL_2,Surface Inside Face Temperature [C] !Monthly [Value,Min,Day,Hour,Minute,Max,Day,Hour,Minute]
884,9,ZONE1_FRONTPERIMETER_WALL_2,Surface Outside Face Temperature [C] !Monthly [Value,Min,Day,Hour,Minute,Max,Day,Hour,Minute]
885,9,ZONE1_FRONTPERIMETER_WALL_2,Surface Inside Face Conduction Heat Transfer Rate [W] !Monthly [Value,Min,Day,Hour,Minute,Max,Day,Hour,Minute]
886,9,ZONE1_FRONTPERIMETER_WALL_3,Surface Inside Face Temperature [C] !Monthly [Value,Min,Day,Hour,Minute,Max,Day,Hour,Minute]
887,9,ZONE1_FRONTPERIMETER_WALL_3,Surface Outside Face Temperature [C] !Monthly [Value,Min,Day,Hour,Minute,Max,Day,Hour,Minute]
888,9,ZONE1_FRONTPERIMETER_WALL_3,Surface Inside Face Conduction Heat Transfer Rate [W] !Monthly [Value,Min,Day,Hour,Minute,Max,Day,Hour,Minute]
889,9,ZONE1_FRONTPERIMETER_FLOOR,Surface Inside Face Temperature [C] !Monthly [Value,Min,Day,Hour,Minute,Max,Day,Hour,Minute]
890,9,ZONE1_FRONTPERIMETER_FLOOR,Surface Outside Face Temperature [C] !Monthly [Value,Min,Day,Hour,Minute,Max,Day,Hour,Minute]
891,9,ZONE1_FRONTPERIMETER_FLOOR,Surface Inside Face Conduction Heat Transfer Rate [W] !Monthly [Value,Min,Day,Hour,Minute,Max,Day,Hour,Minute]
892,9,ZONE1_FRONTPERIMETER_CEILING,Surface Inside Face Temperature [C] !Monthly [Value,Min,Day,Hour,Minute,Max,Day,Hour,Minute]
893,9,ZONE1_FRONTPERIMETER_CEILING,Surface Outside Face Temperature [C] !Monthly [Value,Min,Day,Hour,Minute,Max,Day,Hour,Minute]
894,9,ZONE1_FRONTPERIMETER_CEILING,Surface Inside Face Conduction Heat Transfer Rate [W] !Monthly [Value,Min,Day,Hour,Minute,Max,Day,Hour,Minute]
895,9,ZONE1_FRONTPERIMETER_WALL_0 WINDOW,Surface Inside Face Temperature [C] !Monthly [Value,Min,Day,Hour,Minute,Max,Day,Hour,Minute]
896,9,ZONE1_FRONTPERIMETER_WALL_0 WINDOW,Surface Outside Face Temperature [C] !Monthly [Value,Min,Day,Hour,Minute,Max,Day,Hour,Minute]
897,9,ZONE1_FRONTPERIMETER_WALL_0 WINDOW,Surface Shading Device Is On Time Fraction [] !Monthly [Value,Min,Day,Hour,Minute,Max,Day,Hour,Minute]
898,9,ZONE1_FRONTPERIMETER_WALL_0 WINDOW,Surface Window Blind Slat Angle [deg] !Monthly [Value,Min,Day,Hour,Minute,Max,Day,Hour,Minute]
899,9,ZONE1_RIGHTPERIMETER_WALL_0,Surface Inside Face Temperature [C] !Monthly [Value,Min,Day,Hour,Minute,Max,Day,Hour,Minute]
900,9,ZONE1_RIGHTPERIMETER_WALL_0,Surface Outside Face Temperature [C] !Monthly [Value,Min,Day,Hour,Minute,Max,Day,Hour,Minute]
901,9,ZONE1_RIGHTPERIMETER_WALL_0,Surface Inside Face Conduction Heat Transfer Rate [W] !Monthly [Value,Min,Day,Hour,Minute,Max,Day,Hour,Minute]
902,9,ZONE1_RIGHTPERIMETER_WALL_1,Surface Inside Face Temperature [C] !Monthly [Value,Min,Day,Hour,Minute,Max,Day,Hour,Minute]
903,9,ZONE1_RIGHTPERIMETER_WALL_1,Surface Outside Face Temperature [C] !Monthly [Value,Min,Day,Hour,Minute,Max,Day,Hour,Minute]
904,9,ZONE1_RIGHTPERIMETER_WALL_1,Surface Inside Face Conduction Heat Transfer Rate [W] !Monthly [Value,Min,Day,Hour,Minute,Max,Day,Hour,Minute]
905,9,ZONE1_RIGHTPERIMETER_WALL_2,Surface Inside Face Temperature [C] !Monthly [Value,Min,Day,Hour,Minute,Max,Day,Hour,Minute]
906,9,ZONE1_RIGHTPERIMETER_WALL_2,Surface Outside Face Temperature [C] !Monthly [Value,Min,Day,Hour,Minute,Max,Day,Hour,Minute]
907,9,ZONE1_RIGHTPERIMETER_WALL_2,Surface Inside Face Conduction Heat Transfer Rate [W] !Monthly [Value,Min,Day,Hour,Minute,Max,Day,Hour,Minute]
908,9,ZONE1_RIGHTPERIMETER_WALL_3,Surface Inside Face Temperature [C] !Monthly [Value,Min,Day,Hour,Minute,Max,Day,Hour,Minute]
909,9,ZONE1_RIGHTPERIMETER_WALL_3,Surface Outside Face Temperature [C] !Monthly [Value,Min,Day,Hour,Minute,Max,Day,Hour,Minute]
910,9,ZONE1_RIGHTPERIMETER_WALL_3,Surface Inside Face Conduction Heat Transfer Rate [W] !Monthly [Value,Min,Day,Hour,Minute,Max,Day,Hour,Minute]
911,9,ZONE1_RIGHTPERIMETER_FLOOR,Surface Inside Face Temperature [C] !Monthly [Value,Min,Day,Hour,Minute,Max,Day,Hour,Minute]
912,9,ZONE1_RIGHTPERIMETER_FLOOR,Surface Outside Face Temperature [C] !Monthly [Value,Min,Day,Hour,Minute,Max,Day,Hour,Minute]
913,9,ZONE1_RIGHTPERIMETER_FLOOR,Surface Inside Face Conduction Heat Transfer Rate [W] !Monthly [Value,Min,Day,Hour,Minute,Max,Day,Hour,Minute]
914,9,ZONE1_RIGHTPERIMETER_CEILING,Surface Inside Face Temperature [C] !Monthly [Value,Min,Day,Hour,Minute,Max,Day,Hour,Minute]
915,9,ZONE1_RIGHTPERIMETER_CEILING,Surface Outside Face Temperature [C] !Monthly [Value,Min,Day,Hour,Minute,Max,Day,Hour,Minute]
916,9,ZONE1_RIGHTPERIMETER_CEILING,Surface Inside Face Conduction Heat Transfer Rate [W] !Monthly [Value,Min,Day,Hour,Minute,Max,Day,Hour,Minute]
917,9,ZONE1_REARPERIMETER_WALL_0,Surface Inside Face Temperature [C] !Monthly [Value,Min,Day,Hour,Minute,Max,Day,Hour,Minute]
918,9,ZONE1_REARPERIMETER_WALL_0,Surface Outside Face Temperature [C] !Monthly [Value,Min,Day,Hour,Minute,Max,Day,Hour,Minute]
919,9,ZONE1_REARPERIMETER_WALL_0,Surface Inside Face Conduction Heat Transfer Rate [W] !Monthly [Value,Min,Day,Hour,Minute,Max,Day,Hour,Minute]
920,9,ZONE1_REARPERIMETER_WALL_1,Surface Inside Face Temperature [C] !Monthly [Value,Min,Day,Hour,Minute,Max,Day,Hour,Minute]
921,9,ZONE1_REARPERIMETER_WALL_1,Surface Outside Face Temperature [C] !Monthly [Value,Min,Day,Hour,Minute,Max,Day,Hour,Minute]
922,9,ZONE1_REARPERIMETER_WALL_1,Surface Inside Face Conduction Heat Transfer Rate [W] !Monthly [Value,Min,Day,Hour,Minute,Max,Day,Hour,Minute]
923,9,ZONE1_REARPERIMETER_WALL_2,Surface Inside Face Temperature [C] !Monthly [Value,Min,Day,Hour,Minute,Max,Day,Hour,Minute]
924,9,ZONE1_REARPERIMETER_WALL_2,Surface Outside Face Temperature [C] !Monthly [Value,Min,Day,Hour,Minute,Max,Day,Hour,Minute]
925,9,ZONE1_REARPERIMETER_WALL_2,Surface Inside Face Conduction Heat Transfer Rate [W] !Monthly [Value,Min,Day,Hour,Minute,Max,Day,Hour,Minute]
926,9,ZONE1_REARPERIMETER_WALL_3,Surface Inside Face Temperature [C] !Monthly [Value,Min,Day,Hour,Minute,Max,Day,Hour,Minute]
927,9,ZONE1_REARPERIMETER_WALL_3,Surface Outside Face Temperature [C] !Monthly [Value,Min,Day,Hour,Minute,Max,Day,Hour,Minute]
928,9,ZONE1_REARPERIMETER_WALL_3,Surface Inside Face Conduction Heat Transfer Rate [W] !Monthly [Value,Min,Day,Hour,Minute,Max,Day,Hour,Minute]
929,9,ZONE1_REARPERIMETER_FLOOR,Surface Inside Face Temperature [C] !Monthly [Value,Min,Day,Hour,Minute,Max,Day,Hour,Minute]
930,9,ZONE1_REARPERIMETER_FLOOR,Surface Outside Face Temperature [C] !Monthly [Value,Min,Day,Hour,Minute,Max,Day,Hour,Minute]
931,9,ZONE1_REARPERIMETER_FLOOR,Surface Inside Face Conduction Heat Transfer Rate [W] !Monthly [Value,Min,Day,Hour,Minute,Max,Day,Hour,Minute]
932,9,ZONE1_REARPERIMETER_CEILING,Surface Inside Face Temperature [C] !Monthly [Value,Min,Day,Hour,Minute,Max,Day,Hour,Minute]
933,9,ZONE1_REARPERIMETER_CEILING,Surface Outside Face Temperature [C] !Monthly [Value,Min,Day,Hour,Minute,Max,Day,Hour,Minute]
934,9,ZONE1_REARPERIMETER_CEILING,Surface Inside Face Conduction Heat Transfer Rate [W] !Monthly [Value,Min,Day,Hour,Minute,Max,Day,Hour,Minute]
935,9,ZONE1_REARPERIMETER_WALL_0 WINDOW,Surface Inside Face Temperature [C] !Monthly [Value,Min,Day,Hour,Minute,Max,Day,Hour,Minute]
936,9,ZONE1_REARPERIMETER_WALL_0 WINDOW,Surface Outside Face Temperature [C] !Monthly [Value,Min,Day,Hour,Minute,Max,Day,Hour,Minute]
937,9,ZONE1_REARPERIMETER_WALL_0 WINDOW,Surface Shading Device Is On Time Fraction [] !Monthly [Value,Min,Day,Hour,Minute,Max,Day,Hour,Minute]
938,9,ZONE1_REARPERIMETER_WALL_0 WINDOW,Surface Window Blind Slat Angle [deg] !Monthly [Value,Min,Day,Hour,Minute,Max,Day,Hour,Minute]
939,9,ZONE1_LEFTPERIMETER_WALL_0,Surface Inside Face Temperature [C] !Monthly [Value,Min,Day,Hour,Minute,Max,Day,Hour,Minute]
940,9,ZONE1_LEFTPERIMETER_WALL_0,Surface Outside Face Temperature [C] !Monthly [Value,Min,Day,Hour,Minute,Max,Day,Hour,Minute]
941,9,ZONE1_LEFTPERIMETER_WALL_0,Surface Inside Face Conduction Heat Transfer Rate [W] !Monthly [Value,Min,Day,Hour,Minute,Max,Day,Hour,Minute]
942,9,ZONE1_LEFTPERIMETER_WALL_1,Surface Inside Face Temperature [C] !Monthly [Value,Min,Day,Hour,Minute,Max,Day,Hour,Minute]
943,9,ZONE1_LEFTPERIMETER_WALL_1,Surface Outside Face Temperature [C] !Monthly [Value,Min,Day,Hour,Minute,Max,Day,Hour,Minute]
944,9,ZONE1_LEFTPERIMETER_WALL_1,Surface Inside Face Conduction Heat Transfer Rate [W] !Monthly [Value,Min,Day,Hour,Minute,Max,Day,Hour,Minute]
945,9,ZONE1_LEFTPERIMETER_WALL_2,Surface Inside Face Temperature [C] !Monthly [Value,Min,Day,Hour,Minute,Max,Day,Hour,Minute]
946,9,ZONE1_LEFTPERIMETER_WALL_2,Surface Outside Face Temperature [C] !Monthly [Value,Min,Day,Hour,Minute,Max,Day,Hour,Minute]
947,9,ZONE1_LEFTPERIMETER_WALL_2,Surface Inside Face Conduction Heat Transfer Rate [W] !Monthly [Value,Min,Day,Hour,Minute,Max,Day,Hour,Minute]
948,9,ZONE1_LEFTPERIMETER_WALL_3,Surface Inside Face Temperature [C] !Monthly [Value,Min,Day,Hour,Minute,Max,Day,Hour,Minute]
949,9,ZONE1_LEFTPERIMETER_WALL_3,Surface Outside Face Temperature [C] !Monthly [Value,Min,Day,Hour,Minute,Max,Day,Hour,Minute]
950,9,ZONE1_LEFTPERIMETER_WALL_3,Surface Inside Face Conduction Heat Transfer Rate [W] !Monthly [Value,Min,Day,Hour,Minute,Max,Day,Hour,Minute]
951,9,ZONE1_LEFTPERIMETER_FLOOR,Surface Inside Face Temperature [C] !Monthly [Value,Min,Day,Hour,Minute,Max,Day,Hour,Minute]
952,9,ZONE1_LEFTPERIMETER_FLOOR,Surface Outside Face Temperature [C] !Monthly [Value,Min,Day,Hour,Minute,Max,Day,Hour,Minute]
953,9,ZONE1_LEFTPERIMETER_FLOOR,Surface Inside Face Conduction Heat Transfer Rate [W] !Monthly [Value,Min,Day,Hour,Minute,Max,Day,Hour,Minute]
954,9,ZONE1_LEFTPERIMETER_CEILING,Surface Inside Face Temperature [C] !Monthly [Value,Min,Day,Hour,Minute,Max,Day,Hour,Minute]
955,9,ZONE1_LEFTPERIMETER_CEILING,Surface Outside Face Temperature [C] !Monthly [Value,Min,Day,Hour,Minute,Max,Day,Hour,Minute]
956,9,ZONE1_LEFTPERIMETER_CEILING,Surface Inside Face Conduction Heat Transfer Rate [W] !Monthly [Value,Min,Day,Hour,Minute,Max,Day,Hour,Minute]
957,9,ZONE1_LEFTPERIMETER_WALL_0 WINDOW,Surface Inside Face Temperature [C] !Monthly [Value,Min,Day,Hour,Minute,Max,Day,Hour,Minute]
958,9,ZONE1_LEFTPERIMETER_WALL_0 WINDOW,Surface Outside Face Temperature [C] !Monthly [Value,Min,Day,Hour,Minute,Max,Day,Hour,Minute]
959,9,ZONE1_LEFTPERIMETER_WALL_0 WINDOW,Surface Shading Device Is On Time Fraction [] !Monthly [Value,Min,Day,Hour,Minute,Max,Day,Hour,Minute]
960,9,ZONE1_LEFTPERIMETER_WALL_0 WINDOW,Surface Window Blind Slat Angle [deg] !Monthly [Value,Min,Day,Hour,Minute,Max,Day,Hour,Minute]
961,9,ZONE1_CORE_WALL_0,Surface Inside Face Temperature [C] !Monthly [Value,Min,Day,Hour,Minute,Max,Day,Hour,Minute]
962,9,ZONE1_CORE_WALL_0,Surface Outside Face Temperature [C] !Monthly [Value,Min,Day,Hour,Minute,Max,Day,Hour,Minute]
963,9,ZONE1_CORE_WALL_0,Surface Inside Face Conduction Heat Transfer Rate [W] !Monthly [Value,Min,Day,Hour,Minute,Max,Day,Hour,Minute]
964,9,ZONE1_CORE_WALL_1,Surface Inside Face Temperature [C] !Monthly [Value,Min,Day,Hour,Minute,Max,Day,Hour,Minute]
965,9,ZONE1_CORE_WALL_1,Surface Outside Face Temperature [C] !Monthly [Value,Min,Day,Hour,Minute,Max,Day,Hour,Minute]
966,9,ZONE1_CORE_WALL_1,Surface Inside Face Conduction Heat Transfer Rate [W] !Monthly [Value,Min,Day,Hour,Minute,Max,Day,Hour,Minute]
967,9,ZONE1_CORE_WALL_2,Surface Inside Face Temperature [C] !Monthly [Value,Min,Day,Hour,Minute,Max,Day,Hour,Minute]
968,9,ZONE1_CORE_WALL_2,Surface Outside Face Temperature [C] !Monthly [Value,Min,Day,Hour,Minute,Max,Day,Hour,Minute]
969,9,ZONE1_CORE_WALL_2,Surface Inside Face Conduction Heat Transfer Rate [W] !Monthly [Value,Min,Day,Hour,Minute,Max,Day,Hour,Minute]
970,9,ZONE1_CORE_WALL_3,Surface Inside Face Temperature [C] !Monthly [Value,Min,Day,Hour,Minute,Max,Day,Hour,Minute]
971,9,ZONE1_CORE_WALL_3,Surface Outside Face Temperature [C] !Monthly [Value,Min,Day,Hour,Minute,Max,Day,Hour,Minute]
972,9,ZONE1_CORE_WALL_3,Surface Inside Face Conduction Heat Transfer Rate [W] !Monthly [Value,Min,Day,Hour,Minute,Max,Day,Hour,Minute]
973,9,ZONE1_CORE_FLOOR,Surface Inside Face Temperature [C] !Monthly [Value,Min,Day,Hour,Minute,Max,Day,Hour,Minute]
974,9,ZONE1_CORE_FLOOR,Surface Outside Face Temperature [C] !Monthly [Value,Min,Day,Hour,Minute,Max,Day,Hour,Minute]
975,9,ZONE1_CORE_FLOOR,Surface Inside Face Conduction Heat Transfer Rate [W] !Monthly [Value,Min,Day,Hour,Minute,Max,Day,Hour,Minute]
976,9,ZONE1_CORE_CEILING,Surface Inside Face Temperature [C] !Monthly [Value,Min,Day,Hour,Minute,Max,Day,Hour,Minute]
977,9,ZONE1_CORE_CEILING,Surface Outside Face Temperature [C] !Monthly [Value,Min,Day,Hour,Minute,Max,Day,Hour,Minute]
978,9,ZONE1_CORE_CEILING,Surface Inside Face Conduction Heat Transfer Rate [W] !Monthly [Value,Min,Day,Hour,Minute,Max,Day,Hour,Minute]
979,9,ZONE2_FRONTPERIMETER_WALL_0,Surface Inside Face Temperature [C] !Monthly [Value,Min,Day,Hour,Minute,Max,Day,Hour,Minute]
980,9,ZONE2_FRONTPERIMETER_WALL_0,Surface Outside Face Temperature [C] !Monthly [Value,Min,Day,Hour,Minute,Max,Day,Hour,Minute]
981,9,ZONE2_FRONTPERIMETER_WALL_0,Surface Inside Face Conduction Heat Transfer Rate [W] !Monthly [Value,Min,Day,Hour,Minute,Max,Day,Hour,Minute]
982,9,ZONE2_FRONTPERIMETER_WALL_1,Surface Inside Face Temperature [C] !Monthly [Value,Min,Day,Hour,Minute,Max,Day,Hour,Minute]
983,9,ZONE2_FRONTPERIMETER_WALL_1,Surface Outside Face Temperature [C] !Monthly [Value,Min,Day,Hour,Minute,Max,Day,Hour,Minute]
984,9,ZONE2_FRONTPERIMETER_WALL_1,Surface Inside Face Conduction Heat Transfer Rate [W] !Monthly [Value,Min,Day,Hour,Minute,Max,Day,Hour,Minute]
985,9,ZONE2_FRONTPERIMETER_WALL_2,Surface Inside Face Temperature [C] !Monthly [Value,Min,Day,Hour,Minute,Max,Day,Hour,Minute]
986,9,ZONE2_FRONTPERIMETER_WALL_2,Surface Outside Face Temperature [C] !Monthly [Value,Min,Day,Hour,Minute,Max,Day,Hour,Minute]
987,9,ZONE2_FRONTPERIMETER_WALL_2,Surface Inside Face Conduction Heat Transfer Rate [W] !Monthly [Value,Min,Day,Hour,Minute,Max,Day,Hour,Minute]
988,9,ZONE2_FRONTPERIMETER_WALL_3,Surface Inside Face Temperature [C] !Monthly [Value,Min,Day,Hour,Minute,Max,Day,Hour,Minute]
989,9,ZONE2_FRONTPERIMETER_WALL_3,Surface Outside Face Temperature [C] !Monthly [Value,Min,Day,Hour,Minute,Max,Day,Hour,Minute]
990,9,ZONE2_FRONTPERIMETER_WALL_3,Surface Inside Face Conduction Heat Transfer Rate [W] !Monthly [Value,Min,Day,Hour,Minute,Max,Day,Hour,Minute]
991,9,ZONE2_FRONTPERIMETER_FLOOR,Surface Inside Face Temperature [C] !Monthly [Value,Min,Day,Hour,Minute,Max,Day,Hour,Minute]
992,9,ZONE2_FRONTPERIMETER_FLOOR,Surface Outside Face Temperature [C] !Monthly [Value,Min,Day,Hour,Minute,Max,Day,Hour,Minute]
993,9,ZONE2_FRONTPERIMETER_FLOOR,Surface Inside Face Conduction Heat Transfer Rate [W] !Monthly [Value,Min,Day,Hour,Minute,Max,Day,Hour,Minute]